task_id,composition,band_gap
mp-689442,InCu(WO4)2,0.6250999999999998
mp-1095831,InCuAu2,0.3087
mp-1223929,InCuGeS4,1.1222
mp-1224210,InCuGeSe4,0.6409000000000002
mp-549158,InCuO2,0.24040000000000014
mp-704617,InCuPO5,0.3003999999999998
mp-22736,InCuS2,0.007699999999999819
mp-22811,InCuSe2,0.004599999999999938
mp-1224400,InCuSeS,0.02479999999999993
mp-1224102,InCuSnS4,0.4238999999999997
mp-1224129,InCuSnSe4,0.3559999999999999
mp-22261,InCuTe2,0.002999999999999225
mp-1224187,InCuTeSe,0.032399999999999984
mp-6949,InF3,4.0226
mp-1178184,InFe17O24,1.0363000000000002
mp-771512,InFe29O40,0.3379000000000003
mp-1224078,InFeCoO4,1.6563
mp-1223852,InGa(AgS2)2,0.6437000000000004
mp-1223911,InGa(AgSe2)2,0.09909999999999997
mp-1224147,InGa(CuSe2)2,0.029299999999999663
mp-571379,InGa2Cl7,3.832
mp-1223879,InGa3N4,0.5783000000000005
mp-541283,InGaBr4,2.9288
mp-1223732,InGaCuAgSe4,0.1094000000000004
mp-1223660,InGaN2,0.2290000000000001
mp-8098,InGaO3,1.3419999999999996
mp-1223642,InGaP2,0.5575000000000001
mp-1093895,InGaPd2,0.0040000000000000036
mp-504951,InGaS3,2.3988
mp-504952,InGaSe3,1.7506999999999997
mp-1212081,InGaSnO5,1.2433
mp-1202409,InGe2P(H3C)8,3.3745000000000003
mp-998569,InGeCl3,3.2191
mp-1201000,InH10C2SeCl3O2,3.3682
mp-849776,InH10C3O11,3.4852
mp-759242,InH10N2Cl5O,3.3473
mp-774456,InH11S2O13,3.9504
mp-1204788,InH12(NF2)3,5.3415
mp-1204093,InH12C4Se2Cl3,2.9381
mp-1203230,InH12C4Se2I3,2.3839
mp-774224,InH12S2NO12,3.843
mp-1213492,InH12S3(NO4)3,3.9794
mp-600242,InH24C6(Br2N)3,2.7839
mp-1200352,InH3(CO2)3,4.8264
mp-24281,InH36C12S6(IO2)3,2.4953
mp-1212524,InH3F3,0.13100000000000006
mp-863731,InH4NCl4,3.629
mp-1213608,InH4S2NO8,2.4553000000000003
mp-733932,InH5(NF)2,3.5032
mp-643666,InH5NOF4,4.7597
mp-600220,InH6(CO3)3,3.7006
mp-1201210,InH6(ClO)3,3.7076
mp-706283,InH7N2OF4,3.9317
mp-557319,InH8C4NO10,3.5606
mp-736446,InH8C8N4Cl7,2.0291
mp-849391,InH9(NCl)3,3.7682
mp-1212178,InH9(SO6)2,4.1701
mp-504535,InHO2,1.7764000000000002
mp-560404,InHSeO4,3.4371
mp-20132,InHg,0.15310000000000026
mp-571341,InHg6As4Cl7,1.3825
mp-1203885,InHg6Sb4Br7,1.1192000000000002
mp-1196151,InHg7S6Cl5,1.4446
mp-23202,InI,1.3414
mp-29312,InI2,1.7863000000000002
mp-1223696,InI2Br,1.7796
mp-567789,InI3,2.2746
mp-1205217,InMoHSeO7,3.08
mp-1078367,InNi2SbO6,1.2775999999999996
mp-1212006,InNiAg2F7,1.3171
mp-1181008,InO2,0.2721
mp-27175,InOF,1.7761000000000005
mp-1066872,InOF2,0.5569999999999999
mp-766835,InP(H2O3)2,3.8611
mp-698151,InP2H4NO8,0.20840000000000006
mp-778840,InP2H6NO8,3.9109
mp-773646,InP2H9(NO4)2,3.6991
mp-1204811,InP2PbO8,0.00099999999999989
mp-606312,InP3(HO5)2,3.8946
mp-1203117,InP3Pb2O11,4.0799
mp-675295,InPF3,1.2412
mp-505551,InPH2O5,3.3187
mp-707924,InPH4NO5,0.2115999999999999
mp-764968,InPH5NO5,3.5128000000000004
mp-7566,InPO4,2.3413000000000004
mp-1196067,InPO6,0.3528
mp-1212060,InPb2F7,4.3828
mp-23520,InPb2I5,1.8603
mp-998512,InPbCl3,2.5322
mp-1196269,InRe2(CO)9,1.9511
mp-651750,InRe2C10BrO10,2.3813
mp-651806,InRe2C10ClO10,2.4128
mp-1200518,InRe4C14I3O14,1.6909
mp-1203220,InRhO3,1.0000999999999998
mp-1199853,InS3(NO4)3,0.2833999999999999
mp-1196350,InSb(P2O7)2,2.9742
mp-1212332,InSb2,0.0951000000000004
mp-1224667,InSb3(PO4)6,2.5102
mp-1200631,InSb3F18,3.4663
mp-1223746,InSb3Pb4O13,1.3518999999999997
mp-1212067,InSbO4,0.8975
mp-21365,InSbS3,1.4760999999999995
mp-1212011,InSbSe3,1.0837999999999997
mp-1198762,InSeClO3,3.3721000000000005
mp-505357,InSeI,1.4358
mp-568872,InSi2As(H3C)8,3.4387
mp-1202311,InSi2H19C7Br2,3.1218000000000004
mp-569070,InSi2P(H3C)8,3.7122
mp-1199230,InSi4H38C14Cl,3.9261
mp-1197352,InSi4H41C15O,3.5632
mp-1197178,InSiH11C3Br3N,3.4398
mp-23507,InSn2Br5,2.305
mp-1212110,InSn2Cl5,2.6735
mp-23417,InSn2I5,1.4292000000000002
mp-998555,InSnBr3,1.7489
mp-998567,InSnCl3,2.9935
mp-1204544,InTe2O5F,3.4072
mp-29236,InTeBr,1.5714
mp-1191326,InTeBrO3,2.8969
mp-504630,InTeCl,1.6597999999999995
mp-557992,InTeClO3,3.0723
mp-29234,InTeI,1.5625
mp-680058,InTeI7,1.734
mp-510727,InTeO3F,3.1764
mp-1223753,Ir(N2Cl3)2,0.3325999999999998
mp-1181246,Ir(N3O4)3,0.4790000000000001
mp-1079049,Ir(NCl)4,0.4847
mp-1192469,Ir(SeBr3)3,1.6021
mp-1195597,Ir2(Se3Br2)3,1.5027
mp-1196619,Ir2(Se3Cl2)3,1.584
mp-1190246,Ir2Pb2O7,0.13319999999999954
mp-1181058,Ir2Pt(NCl)10,0.1712999999999999
mp-861979,Ir2S3,1.1241999999999992
mp-667545,Ir3(CO)8,2.4359
mp-1197234,Ir4C5,0.4498000000000015
mp-27397,IrBr3,1.5564999999999998
mp-1199733,IrCSN6(ClO4)2,0.001400000000000068
mp-27666,IrCl3,1.8911
mp-2437,IrF3,0.9249999999999998
mp-560553,IrF6,0.7656000000000001
mp-1025442,IrI3,1.2786999999999995
mp-415,IrN2,0.3178000000000001
mp-1104586,IrN5(Cl2O)3,0.2064999999999999
mp-1212030,IrN7ClO6,0.2897000000000001
mp-1198344,IrRhBr6N5Cl,0.0921
mp-1181100,IrS2Cl3O7,0.4744000000000002
mp-1181321,IrS2N5(Cl2O3)2,0.0486
mp-28211,IrS3Cl11,1.8442
mp-1200098,IrWN5ClO4,0.30859999999999993
mp-23950,K(BH)3,5.0099
mp-24270,K(BH)5,4.6289
mp-24239,K(BH)6,5.5284
mp-763792,K(CoO2)2,0.21649999999999991
mp-1192374,K(GeAs)3,0.7339000000000002
mp-1181385,K(IO3)2,1.0719
mp-1193630,K(IO3)3,0.024000000000000018
mp-30546,K(IrO2)4,0.0014000000000002901
mp-541402,K(Mo2O3)2,0.03880000000000017
mp-504907,K(MoO2)4,0.9908
mp-1200661,K(NaIn3)3,0.23599999999999974
mp-1202659,K(PO4)2,0.00439999999999996
mp-9797,K(SbSe2)2,1.1093000000000002
mp-1211981,K(SiAs)3,1.4127
mp-28769,K(SnSe2)2,1.1675000000000002
mp-1103956,K(TeMo)3,0.4964000000000004
mp-561973,K(TeO3)2,1.0307
mp-1178157,K(WO3)3,0.556
mp-685503,K(Zr3I7)4,0.04220000000000024
mp-690511,K10Co4O9,1.435
mp-1212168,K10CoMo7O27,2.236
mp-1197968,K10Ge18WO4,1.7088
mp-1205471,K10Hf3Mo12PbO48,2.7812
mp-582813,K10In5Sb9,0.5995999999999997
mp-568561,K10MgMo7O27,3.7119
mp-566664,K10MnMo7O27,2.9634
mp-1224638,K10NbInAs6,0.9177
mp-680237,K10Th3(P5S18)2,2.4437
mp-699558,K10Zr3Cd(MoO4)12,3.3376
mp-680539,K11(In2Bi3)3,0.031300000000000334
mp-1194660,K11Cd2Sb5,0.5605
mp-1225077,K11Li4Ta15O45,2.0781
mp-652866,K11LiMn4O16,1.7460999999999998
mp-1224735,K12Ag4As8CSe20O,0.6541999999999999
mp-570411,K12In2Se9,1.646
mp-1224205,K12Mo4S11Cl4O5,2.391
mp-569918,K13Na2W7N19,1.5499
mp-555310,K14Fe4O13,2.2505
mp-554146,K14In4O13,1.8378
mp-1224722,K14P16Pd9O56,1.1714
mp-1195294,K14ZnGe16,1.0992000000000002
mp-1029850,K15Cr7N19,0.6508
mp-1029869,K15Mo7N19,1.2845
mp-686607,K15Nd7Zr9(PO4)24,4.2042
mp-1029965,K15Os7N19,0.032399999999999984
mp-1212473,K15P16Pd9O56,0.002800000000000136
mp-1029863,K15Re7N19,0.018400000000000197
mp-1030950,K15W7N19,1.4793
mp-674338,K16Zr12Se61,1.3747
mp-566771,K17Fe5O16,2.0912
mp-1226658,K19Ti3Sb29O88,1.5470000000000002
mp-542749,K2(MoSe6)3,0.8439000000000001
mp-31012,K2(NbBr3)3,1.0937
mp-28501,K2(NbCl3)3,1.0867999999999998
mp-541638,K2(ReS2)3,1.4087000000000005
mp-541060,K2(ReSe2)3,1.2263000000000002
mp-3916,K2(SO2)3,3.5394
mp-541353,K2(TcS2)3,1.032
mp-541354,K2(TcSe2)3,0.9540000000000002
mp-1198096,K2(TeO4)3,0.10829999999999997
mp-695298,K22Nb13In11(PO5)24,2.5818
mp-685416,K24Zr18Se91,0.02899999999999997
mp-541915,K2Ag(AsSe2)3,1.3199999999999998
mp-558500,K2Ag2GeS4,1.4068000000000005
mp-1188845,K2Ag2GeSe4,1.1014
mp-570887,K2Ag2SnSe4,0.8444
mp-553936,K2Ag4Pd3(NO2)12,1.7352999999999998
mp-557863,K2Ag4Pt3(NO2)12,1.8305
mp-7494,K2Ag4S3,0.5081
mp-573891,K2Ag4Se3,0.0017000000000000348
mp-559880,K2Ag6Sn3S10,1.1197
mp-7642,K2AgAs,1.0712000000000002
mp-1112001,K2AgAsBr6,0.7399
mp-1112480,K2AgAsCl6,1.2197
mp-1112290,K2AgAsF6,2.2282
mp-1097515,K2AgAu,2.013
mp-27549,K2AgBi,0.6777
mp-1110921,K2AgBiBr6,1.3101999999999998
mp-1110920,K2AgBiCl6,1.8139
mp-1110952,K2AgBiI6,0.8096000000000001
mp-680232,K2AgC3(SN)3,3.2060000000000004
mp-1104293,K2AgF4,0.6746
mp-569943,K2AgI3,2.5687
mp-1112282,K2AgIrF6,1.2990000000000002
mp-1110917,K2AgMoBr6,0.5131
mp-1110858,K2AgMoCl6,0.8697000000000001
mp-1110951,K2AgMoI6,0.2502000000000002
mp-9778,K2AgP,1.2315
mp-1111950,K2AgRhF6,1.2772
mp-7643,K2AgSb,1.187
mp-1110912,K2AgSbBr6,0.8412000000000001
mp-1110873,K2AgSbCl6,1.3297
mp-1110848,K2AgSbF6,2.0464
mp-1110949,K2AgSbI6,0.3809999999999998
mp-553923,K2AgSbS4,1.0986999999999998
mp-695452,K2Al11Si13(Ag3O16)3,1.2822
mp-1199876,K2Al2(SiO4)3,0.7414999999999999
mp-1223763,K2Al2O2F9,0.17399999999999993
mp-974451,K2Al2O3F2,4.0212
mp-1180933,K2Al2O7,0.4015
mp-554959,K2Al2Sb2O7,3.4989999999999997
mp-17886,K2Al2Sb3,0.9634
mp-1198051,K2Al2Si2O9,0.5299
mp-1212051,K2Al2Si3(HO5)2,3.2443
mp-1019744,K2Al2Si3O10,4.3747
mp-705598,K2Al4Fe5Si5(HO6)4,1.0337
mp-1112104,K2AlAgBr6,1.2041
mp-1111973,K2AlAgCl6,2.2252
mp-1111949,K2AlAgF6,3.0580000000000003
mp-1112440,K2AlAuCl6,0.5753999999999999
mp-1112269,K2AlAuF6,1.3159
mp-1197321,K2AlB5O14,0.8814000000000001
mp-1112165,K2AlCuF6,1.1111
mp-9486,K2AlF5,6.3239
mp-24608,K2AlH2OF5,5.9967
mp-1112191,K2AlInBr6,1.8239
mp-1112189,K2AlInCl6,2.7653000000000003
mp-1112188,K2AlInF6,3.878
mp-1112023,K2AlInI6,0.8125
mp-1223985,K2AlMo3(P2O7)4,0.0043000000000001926
mp-767417,K2AlPCO7,4.9518
mp-1203080,K2AlSO4F3,5.7729
mp-1224126,K2AlSn(PO4)3,3.6784
mp-1111591,K2AlTlBr6,2.6754
mp-1111590,K2AlTlCl6,3.6783
mp-1111379,K2AlTlF6,5.0077
mp-1111199,K2AlTlI6,1.5653
mp-8147,K2As2Pd,0.6457999999999999
mp-1079513,K2As2Pt,0.8096999999999999
mp-1112434,K2AsAuCl6,0.09579999999999987
mp-1112267,K2AsAuF6,0.7651000000000001
mp-9511,K2AsAuS4,0.9865
mp-1178156,K2AsPCO7,4.199
mp-1205404,K2B(CN)3,2.4597
mp-705494,K2B10H13O2,3.7309
mp-1212598,K2B2(SO4)3,0.5192999999999999
mp-4351,K2B2S7,2.4971
mp-1202890,K2B2Se3O10,4.1608
mp-542637,K2B2Se7,1.6237
mp-721901,K2B4H8O11,5.2011
mp-17166,K2B4O7,4.821000000000001
mp-707775,K2B5H5O11,4.8926
mp-558951,K2B6H2O11,5.3641999999999985
mp-722910,K2B6H5NO2,1.7886000000000002
mp-662803,K2Ba(Ge4O9)2,2.9969
mp-560282,K2Ba(NO2)4,2.1777
mp-540627,K2Ba(SO)12,2.7286
mp-531968,K2Ba3Sb4,0.44410000000000016
mp-1223764,K2Ba5(Si2O5)6,4.5144
mp-863761,K2BaCdSb2,0.1504000000000003
mp-12145,K2BaCu(NO2)6,0.22440000000000004
mp-1200158,K2BaNa2Ti4(SiO4)8,0.5056
mp-1212630,K2BaNa2Ti4Si8(WO7)4,0.08970000000000056
mp-1212599,K2BaNb2S11,0.9839000000000002
mp-690607,K2BaNi(NO2)6,1.6928999999999998
mp-1223667,K2BaSnTe4,1.3436999999999997
mp-557246,K2Be(CO2)4,3.4257
mp-557802,K2Be(Si2O5)2,4.6976
mp-561549,K2Be2(Si2O5)3,4.83
mp-557472,K2Be2(SiO3)3,4.809900000000002
mp-754587,K2Be2O3,3.3025
mp-7385,K2Be2PbF8,5.547000000000001
mp-1212261,K2Be2Zn(O3F4)2,0.2054999999999998
mp-557516,K2Be2Zn2Si3O11,3.5047
mp-1213397,K2Be3Co2F12,0.0050999999999999926
mp-1212188,K2Be3Ni2F12,5.7832
mp-6372,K2Be3Zn2F12,5.6758000000000015
mp-5185,K2BeF4,6.8711
mp-510545,K2BeH4(SO5)2,5.2395
mp-542813,K2BeH4(SeO5)2,3.6123
mp-27915,K2BeO2,2.9204
mp-1202842,K2BeSi4O13,0.3622
mp-675978,K2Bi3F11,3.8253
mp-1084770,K2BiAu,0.961
mp-1111995,K2BiAuBr6,0.2372000000000001
mp-1112073,K2BiAuCl6,0.9146
mp-1112330,K2BiAuF6,1.0613
mp-1181561,K2BiBr5O2,1.2235
mp-561290,K2BiF5,4.7686
mp-1197978,K2BiH4Cl5O2,3.6525
mp-698494,K2BiH5(CO2)5,4.112
mp-566924,K2BiMoPO8,3.5602
mp-772808,K2BiPCO7,3.7438
mp-566769,K2BiPWO8,4.0502
mp-1223648,K2BrCl,4.4921
mp-989591,K2BrCl6F,0.9144
mp-10408,K2CN2,3.2015
mp-3963,K2CO3,3.6392
mp-559393,K2CS2(O3F)2,5.6439
mp-1193648,K2CS3O,1.8535
mp-6494,K2Ca(CO3)2,4.3436
mp-557597,K2Ca(NO2)4,2.4394
mp-554591,K2Ca2(CO3)3,4.7388
mp-15600,K2Ca2(SO4)3,5.5099
mp-682592,K2Ca2C2O3F2,0.3043
mp-1193556,K2Ca2Mg(S2O9)2,0.7421
mp-1212031,K2Ca2MgH2(SO4)4,2.4544
mp-1019747,K2Ca3Si3O10,4.1202000000000005
mp-1019746,K2Ca4Si8O21,4.5791
mp-1192578,K2Ca4U(SiO4)4,2.0116
mp-1199173,K2Ca5S6O25,0.40879999999999983
mp-557367,K2CaAs2O7,3.513
mp-7680,K2CaCu(NO2)6,0.3385
mp-23723,K2CaH2S2O9,5.3783
mp-707762,K2CaH8(N3O)4,4.1829
mp-1223917,K2CaMg5Si8(HO12)2,4.395
mp-555914,K2CaP2O7,4.8824000000000005
mp-557832,K2Cd(AuS)4,2.031
mp-1201089,K2Cd(C2O5)2,0.5133
mp-20623,K2Cd(CN)4,6.0005000000000015
mp-560982,K2Cd(NO2)4,2.4568
mp-1181057,K2Cd(SeO5)2,0.523
mp-6724,K2Cd2(SO4)3,3.8609
mp-7534,K2Cd2O3,0.6527
mp-699496,K2Cd3H10S4O21,0.5061
mp-1223689,K2Cd3SnAs4,0.008300000000000196
mp-1212732,K2CdGeO4,2.3067
mp-697945,K2CdH4(SeO5)2,2.9829
mp-27970,K2CdN12,2.911
mp-27742,K2CdO2,1.3576
mp-554382,K2CdP2O7,3.7754
mp-541538,K2CdSiO4,2.6403
mp-1079679,K2CdSn,0.16679999999999984
mp-1194826,K2CdSnS4,1.4864999999999997
mp-1079645,K2CdSnSe4,1.6857
mp-1206020,K2Ce(CuS2)2,0.23839999999999995
mp-558886,K2Ce(NO3)6,1.3666
mp-1195550,K2Ce(PO4)2,1.3919
mp-557649,K2Ce(Si2O5)3,2.2219
mp-1097037,K2Ce2Fe4O11,0.10210000000000008
mp-1110919,K2CeAgBr6,0.24
mp-1110918,K2CeAgCl6,0.2679
mp-1110967,K2CeAgI6,0.21370000000000025
mp-1019774,K2CeAl(SiO3)4,0.2709000000000001
mp-1111996,K2CeAuCl6,0.1610999999999998
mp-1212039,K2CeBr5,0.15580000000000016
mp-1212138,K2CeCl5,0.1604000000000001
mp-1112553,K2CeCuBr6,0.2320000000000002
mp-1112237,K2CeCuCl6,0.2709999999999999
mp-1112048,K2CeCuI6,0.20779999999999976
mp-1212084,K2CeI5,0.14890000000000025
mp-772782,K2CePCO7,0.2603
mp-1197944,K2CeS3O13,0.3854
mp-21542,K2CeTa5O15,0.0481000000000007
mp-1181383,K2Co(B2O5)6,0.03750000000000009
mp-547521,K2Co(PO3)4,3.1734
mp-1181029,K2Co(SO5)2,0.6687000000000001
mp-19189,K2Co(SeO3)2,2.9292
mp-705306,K2Co2(MoO4)3,2.5043
mp-31523,K2Co2(SO4)3,2.7184
mp-1223719,K2Co2(SeO3)3,2.6468
mp-542914,K2Co3H6S3O16,2.8569999999999998
mp-746692,K2Co3P4(HO4)4,2.8374
mp-23515,K2CoCl4,0.7890999999999999
mp-1206883,K2CoF6,1.1385
mp-549032,K2CoH12(SO7)2,3.1294
mp-1238731,K2CoH12(SeO7)2,0.3398999999999999
mp-1238442,K2CoH2(SO5)2,2.6736000000000004
mp-690515,K2CoH2(SeO5)2,1.0581
mp-1223804,K2CoH4(I2O7)2,2.5731
mp-644334,K2CoH4(SeO5)2,2.9347000000000003
mp-25679,K2CoH8(CO5)2,3.0343
mp-1211977,K2CoI4,0.6484999999999999
mp-31622,K2CoO2,0.6702000000000001
mp-1212013,K2CoO3,0.4546
mp-1188582,K2CoP2(H3O4)2,3.0126
mp-645301,K2CoP2WO10,2.661
mp-1195899,K2CoP4(HO2)8,3.3016
mp-764838,K2CoP4H10O17,3.0405
mp-773463,K2CoPCO7,0.9361
mp-505285,K2CoSiO4,2.8553000000000006
mp-744181,K2Cr2AsHO10,2.6899
mp-1202439,K2Cr2AsO10,0.08700000000000019
mp-24928,K2Cr2Cd(H2O5)2,2.7657
mp-1204374,K2Cr2Cu(PO7)2,0.06059999999999999
mp-566274,K2Cr2HgCl2O7,2.5505
mp-1076696,K2Cr2O5,0.5732999999999999
mp-558015,K2Cr2O7,2.7075
mp-566683,K2Cr3(ClF3)2,2.3631
mp-504618,K2Cr3O10,2.0045
mp-601806,K2Cr4Co(HO4)4,1.8271
mp-558086,K2Cr4O13,1.8399
mp-1212394,K2CrF5,3.3975
mp-542691,K2CrH2Cl5O,2.3851
mp-866728,K2CrH2F8,1.9071
mp-1228872,K2CrMo6H19O32,0.6567000000000001
mp-775274,K2CrO4,3.1309
mp-773258,K2CrPCO7,2.4556
mp-565687,K2CrSO7,2.4712
mp-1212236,K2Cu(C2O5)2,0.06040000000000001
mp-542332,K2Cu(CO3)2,0.6847999999999999
mp-1078646,K2Cu(Cl2O)2,0.5265
mp-1023132,K2Cu(ClF)2,0.5852999999999999
mp-6598,K2Cu(PO3)4,0.8983
mp-559644,K2Cu(PS3)3,1.9435
mp-1203158,K2Cu(SO5)2,0.27899999999999997
mp-558998,K2Cu(Si2O5)2,0.9785
mp-1212576,K2Cu2(MoO4)3,0.04149999999999998
mp-558193,K2Cu3(AsO3)4,0.1322000000000001
mp-704317,K2Cu3(MoO4)4,0.4651000000000001
mp-556074,K2Cu3(SeO3)4,0.08140000000000014
mp-556755,K2Cu3Ge5O14,0.4864
mp-556787,K2Cu3S3O13,0.19730000000000006
mp-707879,K2Cu5H8(Cl4O3)2,0.20890000000000009
mp-1194684,K2Cu5TeS3O19,0.04369999999999985
mp-15684,K2CuAs,1.0674
mp-1112251,K2CuAsF6,0.9779
mp-1110910,K2CuBiBr6,0.6294
mp-1110871,K2CuBiCl6,0.9383
mp-1110946,K2CuBiI6,0.3239000000000001
mp-571440,K2CuBr3,1.901
mp-569952,K2CuCl3,2.0520000000000005
mp-8388,K2CuF4,0.37799999999999995
mp-24038,K2CuH12(SO7)2,0.5616
mp-554335,K2CuH12(SeO7)2,0.5889
mp-1202524,K2CuH14C4(N3O4)2,0.9624
mp-696384,K2CuH4(Cl2O)2,0.5887
mp-600154,K2CuH8(CO3)4,0.7686999999999999
mp-1110870,K2CuMoBr6,0.3589
mp-1110909,K2CuMoI6,0.06190000000000007
mp-8446,K2CuP,1.1421
mp-1190935,K2CuP2O7,0.1431
mp-754351,K2CuPCO7,0.078
mp-560601,K2CuS(ClO2)2,0.5867
mp-10381,K2CuSb,1.1110999999999998
mp-1110906,K2CuSbBr6,0.3128
mp-554343,K2CuSbS3,1.1907
mp-1191495,K2CuTeO7,0.15850000000000009
mp-680676,K2Dy4Cu4S9,0.8811
mp-977368,K2Dy4Cu4Se9,0.7275
mp-1112098,K2DyAgCl6,3.4438000000000004
mp-1112074,K2DyAuCl6,2.0355
mp-1212062,K2DyCl5,4.9163999999999985
mp-1111994,K2DyCuCl6,2.3502
mp-1212010,K2DyF5,6.7518
mp-1212064,K2DyNb5O15,1.9246
mp-756470,K2DyPCO7,4.4189
mp-558276,K2Er(NO3)5,3.4458
mp-1212140,K2Er2(PO4)3,0.0344
mp-1112473,K2ErAgCl6,3.4517
mp-1112072,K2ErAuCl6,1.9878
mp-1112164,K2ErCuCl6,2.3469
mp-17371,K2ErF5,6.7986
mp-754613,K2ErPCO7,4.4968
mp-677014,K2ErTi(PO4)3,2.5575
mp-1212263,K2EuF5,0.01670000000000016
mp-628810,K2EuGeSe5,0.20320000000000027
mp-628804,K2EuSiSe5,0.278
mp-565303,K2Fe(CO)4,3.5147000000000004
mp-6744,K2Fe(PS3)2,0.21560000000000026
mp-1191175,K2Fe(PSe3)2,0.32030000000000003
mp-944271,K2Fe2(SO4)3,0.6839000000000004
mp-619092,K2Fe2As2O9,1.8765
mp-1195799,K2Fe2B2O7,2.4424
mp-1205435,K2Fe2P2O7F2,3.5970000000000004
mp-1213446,K2Fe3(S3O19)2,0.03190000000000004
mp-1120752,K2Fe4O7,1.6641
mp-1196996,K2FeCl5O,0.3718
mp-568816,K2FeCu(CN)6,0.5028
mp-1212014,K2FeCuC12,0.07490000000000001
mp-565539,K2FeF5,3.6831
mp-543050,K2FeH12(SO7)2,3.6354
mp-25745,K2FeH2Cl5O,2.2076
mp-743616,K2FeH2OF5,3.8684
mp-743846,K2FeH4(SO5)2,4.2547
mp-744366,K2FeH8(SO6)2,4.4501
mp-14083,K2FeNi(CN)6,1.5027
mp-19320,K2FeO4,1.5215
mp-744554,K2FeP2H3(O4F)2,0.4448000000000001
mp-1191511,K2FeP2O7,3.2923
mp-1201434,K2FeP4O15,0.03370000000000006
mp-773453,K2FePCO7,2.128
mp-604118,K2FePH5(CO5)2,2.5254
mp-15432,K2Ga2As3,1.0329000000000002
mp-561525,K2Ga2B2O7,3.7999
mp-15433,K2Ga2Sb3,0.9068999999999998
mp-568052,K2Ga3,0.21829999999999994
mp-10973,K2Ga3CuSe6,1.0807000000000002
mp-1112469,K2GaAgCl6,0.9106
mp-1112284,K2GaAgF6,2.235
mp-15415,K2GaAs2,1.0115000000000005
mp-1112264,K2GaAuF6,0.6703
mp-1111940,K2GaCuF6,0.1934
mp-15417,K2GaP2,1.2291999999999998
mp-1224478,K2GaP2H3(O4F)2,4.920400000000001
mp-772857,K2GaPCO7,3.6732
mp-30077,K2GaSb2,1.1041999999999998
mp-1112068,K2GdAuCl6,1.4942
mp-1212034,K2GdCl5,2.5502
mp-1112163,K2GdCuCl6,0.7999
mp-642655,K2GdF5,4.5118
mp-1212097,K2GdNb5O15,1.899
mp-560685,K2Ge(IO3)6,3.1645
mp-1019775,K2Ge(S2O7)3,3.7751
mp-1211960,K2Ge2O3,1.7605999999999995
mp-771185,K2Ge2O5,2.935
mp-608014,K2Ge2Pb2O7,3.1648
mp-561132,K2Ge2PbS6,2.1956
mp-541878,K2Ge2S5,2.3159
mp-29388,K2Ge2Se5,1.8029
mp-560019,K2Ge3(BO5)2,3.8545
mp-560875,K2Ge4O9,3.0055
mp-4698,K2Ge8O17,2.6303
mp-8930,K2GeAs2,0.8328000000000002
mp-1201387,K2GeB4O11,0.7183
mp-1196720,K2GeC6O13,0.2542
mp-14168,K2GeF6,5.8902
mp-9692,K2GeSe3,1.7264
mp-29022,K2GeSe4,1.7867
mp-28126,K2GeTe4,1.0714
mp-24538,K2H12Ru(SO7)2,2.0821
mp-707400,K2H17Ru2(SO6)4,0.10620000000000003
mp-1190598,K2H2C2O5,3.3827
mp-722245,K2H2C2S2N2O,2.3712000000000004
mp-699253,K2H2C3S2O7F6,5.5227
mp-23801,K2H2IrCl5O,1.8583000000000005
mp-774223,K2H2OsCCl5O2,0.5613
mp-703299,K2H2RhCl5O,0.5501
mp-696941,K2H2RuO5,0.8350000000000001
mp-1203386,K2H3IrNCl5,1.8653
mp-1212248,K2H3OsN2O7,1.2291
mp-1238921,K2H4IO5,3.6048
mp-643257,K2H4Pd,2.6477
mp-974713,K2H4Pt,3.2469
mp-696056,K2H4PtC6S6(N3O)2,1.5465
mp-29330,K2H5F7,7.1692
mp-643801,K2H6PbO6,2.131
mp-643279,K2H6Pt,3.9984
mp-720283,K2H6PtC4N4O3,1.8723
mp-24589,K2HBrO,3.5292
mp-733853,K2HI2ClO6,3.0513
mp-1212065,K2HRuCl5,0.0017999999999999683
mp-695383,K2HS2NO6,5.2708
mp-1204851,K2HS2NO7,5.3050000000000015
mp-1201301,K2Hf2O5,4.4324
mp-14128,K2HfF6,6.4672
mp-1204887,K2HfO2F5,0.12149999999999996
mp-6051,K2Hg(CN)4,5.856999999999998
mp-568855,K2Hg(PSe3)2,1.3922
mp-559061,K2Hg2SCl4O3,2.204
mp-17792,K2Hg3(GeS4)2,1.5520999999999998
mp-17307,K2Hg3(GeSe4)2,1.0352
mp-561386,K2Hg3C8(NO)8,3.3064
mp-558792,K2Hg3S3O10,2.3637
mp-1211986,K2Hg3S4,1.5522
mp-1212008,K2Hg3Se4,1.1021
mp-561222,K2HgBr2(NO6)2,1.9283
mp-556327,K2HgC2S2(BrN)2,2.3991
mp-1180946,K2HgCl4,2.3499
mp-1180943,K2HgCl4O,0.8858
mp-23926,K2HgH2Cl4O,2.7153
mp-1200735,K2HgH4PtC6(N3O)2,3.1834
mp-1212075,K2HgHCl4,1.8568
mp-5860,K2HgO2,2.0773
mp-28859,K2HgS2,2.1246
mp-1104599,K2HgS4,1.1952999999999998
mp-1093705,K2HgSe,0.2559
mp-1097108,K2HgTe,0.12860000000000005
mp-1212046,K2HoCl5,4.9895
mp-1212022,K2HoF5,6.778499999999998
mp-1212050,K2HoNb5O15,1.9064
mp-767414,K2HoPCO7,4.452
mp-565678,K2HoPWO8,4.543
mp-1201559,K2I2ClO6,0.1103
mp-677073,K2I2O3,0.6576
mp-1204607,K2I3NO12,0.1346
mp-581517,K2In(PSe4)2,1.1954999999999998
mp-21836,K2In12Se19,0.8491
mp-21741,K2In2As3,0.7807999999999997
mp-733854,K2In2P2HO10,0.13490000000000013
mp-1199715,K2In2P3Se10,1.5609
mp-579637,K2In2Sb3,0.8028
mp-21705,K2In3AgSe6,1.0658
mp-21713,K2In3CuSe6,0.7267000000000001
mp-1112464,K2InAgBr6,0.2082
mp-1110874,K2InAgCl6,1.0131
mp-1112283,K2InAgF6,1.6627