task_id,composition,band_gap
mp-1202344,MgH12(ClO6)2,5.5317
mp-707735,MgH12(I4O3)2,1.3114
mp-734042,MgH12(NO6)2,3.5098000000000003
mp-721342,MgH12(SO6)2,0.07789999999999986
mp-1204393,MgH12C3SO7,5.6668
mp-504802,MgH12S2O9,4.3727
mp-696407,MgH12SO10,0.3904000000000001
mp-23887,MgH12SO9,4.9641
mp-757290,MgH12SeO10,3.8902
mp-504894,MgH12SeO9,5.0692
mp-24396,MgH14SO11,5.1954
mp-1203034,MgH16(IO4)2,3.7251
mp-1202346,MgH16(IO8)2,2.2105
mp-1181934,MgH16C4S4N2(O4F3)4,1.5576
mp-707938,MgH18C4SN8O9,5.1563
mp-1200673,MgH18I2O9,3.8422
mp-23710,MgH2,3.7097
mp-555000,MgH2(CO2)2,4.8844
mp-690765,MgH2(SO4)2,1.8378
mp-697236,MgH2(SeO3)2,4.2293
mp-24546,MgH2(SeO4)2,3.2742
mp-703426,MgH20C4Br2(N4O3)2,1.5997
mp-23911,MgH20S2(NO7)2,5.2087
mp-1198750,MgH22SO15,5.0288
mp-707907,MgH24C6N12(ClO6)2,5.4637
mp-24337,MgH2Cl2O,5.3706999999999985
mp-24041,MgH2SO5,5.5024
mp-23966,MgH2SeO5,3.4068
mp-1195604,MgH30C2(SO9)2,5.1678
mp-1194668,MgH4(CO)4,4.3705
mp-24336,MgH4(ClO)2,5.3195
mp-864887,MgH4(NO4)2,3.4439
mp-707720,MgH40C10Br2(N2O)10,4.8406
mp-24464,MgH4S2O9,4.2343
mp-697170,MgH6(BrN)2,4.1225
mp-542785,MgH6(CO3)2,4.8736
mp-697168,MgH6(NCl)2,4.7741
mp-24460,MgH6(SO4)4,5.9617
mp-1199041,MgH6CO6,4.8073
mp-1203165,MgH8(ClO2)2,5.2606
mp-865188,MgH8(ClO6)2,5.3052
mp-24566,MgH8(IO5)2,4.1474
mp-697653,MgH8(NF2)2,5.9988
mp-556025,MgH8C2S2(NO2)2,4.3106
mp-560827,MgH8C4(N3O2)2,4.7911
mp-1194681,MgH8C4(NO3)2,4.7814
mp-24397,MgH8SO8,5.2584
mp-1202806,MgHAu2F11,1.6258
mp-1106013,MgHg3(Cl4O3)2,0.4823
mp-23205,MgI2,3.616200000000001
mp-1181614,MgIO12,0.7576
mp-1222146,MgIn2Ga2CuO8,0.0018000000000002456
mp-676338,MgIn2O4,1.2957
mp-29483,MgInBr3,2.0567
mp-1043454,MgMn(GeO3)2,1.3796
mp-1045783,MgMn(PO3)4,4.0913
mp-1043525,MgMn(Si2O5)2,3.0860000000000003
mp-1041845,MgMn(SiO3)2,3.1024000000000003
mp-1180387,MgMn2(BrO2)6,0.09250000000000004
mvc-10136,MgMn2(PO4)2,3.1832000000000003
mp-1191373,MgMn2As2(PbO9)2,0.4680000000000002
mvc-7730,MgMn2CoO7,0.12519999999999998
mp-1221950,MgMn2O3,1.1066000000000005
mp-32006,MgMn2O4,1.0125000000000006
mp-1043529,MgMn3(P2O7)2,3.4299
mp-1047808,MgMn3P3O13,0.06959999999999987
mp-1221976,MgMn3Te4,0.2586000000000004
mp-1003484,MgMn4O8,0.4926000000000004
mp-1003771,MgMn6O12,0.3475000000000001
mp-1042773,MgMnAs2O7,1.4546
mvc-5747,MgMnAsO5,1.3572
mp-1222009,MgMnB2O5,3.4878
mp-1042632,MgMnBiO5,1.1278000000000006
mp-1046728,MgMnF4,4.0688
mvc-14229,MgMnF5,1.609
mvc-15860,MgMnF6,2.6296
mp-1043098,MgMnNiP2O9,0.026899999999999924
mp-1003856,MgMnO2,1.7128999999999994
mp-1048275,MgMnP2O7,3.8787
mp-1046700,MgMnPO5,0.8868999999999998
mp-1210608,MgMnSiO4,2.5968
mp-1046683,MgMnSiO5,0.8003
mp-1221936,MgMnTe2,0.8159999999999998
mp-1210711,MgMnZnSiO6,0.8698000000000001
mp-1044052,MgMo2(PO5)2,0.5431999999999997
mvc-5207,MgMo2O5,0.9939
mp-504620,MgMo2O7,3.6743
mp-1040870,MgMo2P2O9,2.604
mvc-9231,MgMo3O7,0.9613999999999998
mp-1046644,MgMo3O8,1.23
mp-1041465,MgMo3P3O13,1.4068999999999998
mp-677217,MgMo3S4,1.2532999999999994
mp-675435,MgMo3Se4,1.1651999999999996
mp-1047806,MgMo4O9,0.9604
mvc-5864,MgMoAsO5,1.148
mvc-14220,MgMoF5,3.7721
mvc-13940,MgMoF6,2.4387
mp-25582,MgMoH2O5,4.0949
mp-864954,MgMoN2,0.7411000000000012
mvc-15644,MgMoO3,1.5122999999999998
mp-1180375,MgMoO9,0.012400000000000078
mp-1093869,MgMoRu2,0.08969999999999967
mp-1180491,MgN(ClO2)3,0.10939999999999994
mp-1078930,MgN8,0.7761
mp-673624,MgNb2(PbO3)3,2.1362000000000005
mp-17953,MgNb2O6,3.4118000000000004
mp-1043162,MgNi(GeO3)2,2.4504
mp-1045786,MgNi(PO3)4,4.4540000000000015
mp-1041075,MgNi2(PO4)2,2.5845
mp-1044099,MgNi2(PO5)2,0.024000000000000018
mvc-12148,MgNi2O5,0.2024000000000004
mp-1043448,MgNi3(P2O7)2,3.8913
mvc-258,MgNi4O9,0.001000000000000334
mp-1042817,MgNiAs2O7,2.6194000000000006
mvc-5617,MgNiAsO5,0.7646999999999999
mp-1224736,MgNiB2P2(H3O4)4,2.551
mp-1044415,MgNiBiO5,0.6899000000000002
mp-1118049,MgNiF4,4.2164
mvc-3192,MgNiF5,1.2876
mvc-15858,MgNiF6,2.0238
mp-1221953,MgNiO2,3.425
mp-1048259,MgNiP2O7,3.9661
mp-1046740,MgNiPO5,0.05399999999999983
mp-1043215,MgNiSnP2O9,3.0102
mp-2589,MgO2,3.734
mp-1197911,MgP(CO3)2,0.11519999999999996
mp-1200361,MgP(CO4)2,0.7208000000000001
mp-23734,MgP(HO)7,5.2566
mp-24195,MgP2(H8O5)2,5.6498
mp-1210771,MgP2(HO)18,0.1282000000000001
mp-1044122,MgP2(WO5)2,1.2356999999999996
mp-1204422,MgP2H10(NO4)2,4.6476
mp-722397,MgP2H12O11,5.4433
mp-504807,MgP2H20C4(N2O3)4,5.1417
mp-1041003,MgP2W2O9,1.8542000000000003
mp-1042068,MgP2WO7,1.6321999999999992
mp-1047801,MgP3W3O13,0.9504
mp-384,MgP4,0.7289000000000003
mp-554819,MgP4(Cl5O3)2,3.5985
mp-15437,MgP4O11,5.1105
mp-1044085,MgP4W3O14,0.5533999999999999
mp-1045917,MgP4WO12,1.8898
mp-1202715,MgP6H24(N2O11)2,5.1293000000000015
mp-1190717,MgPH13O9,5.5568
mp-721161,MgPH16NO10,4.8216
mp-1210838,MgPH6NO5,2.0343
mp-720260,MgPHO9,0.028700000000000007
mp-1197696,MgPO4,0.9484
mp-1197436,MgPO7,0.1190000000000001
mp-675651,MgPS3,2.7986
mp-30943,MgPSe3,2.0382
mp-25799,MgPb2WO6,2.8636
mp-19734,MgPbF6,3.0406
mp-12741,MgPd2,0.005599999999999382
mp-1097494,MgPd2Pb,0.5077000000000003
mp-7921,MgPdF6,1.8285
mp-1176493,MgReO4,0.1642999999999999
mp-1315,MgS,2.7628000000000004
mp-1185959,MgS2,0.9199000000000002
mp-1020122,MgS2O7,5.5211000000000015
mp-1212723,MgSO11,0.07199999999999984
mp-769397,MgSO3,4.9784
mp-7572,MgSO4,5.4889
mp-1211278,MgSO8,0.2851999999999999
mp-24696,MgSb2(H4O3)6,3.2827
mp-849311,MgSb2H2F14,4.4907
mp-1044790,MgSb2P2O9,2.1411999999999995
mp-1041149,MgSb3P3O13,2.2432
mp-1195096,MgSb3XeF23,1.5948
mp-1045681,MgSbAs2SeO7,0.5017
mvc-5650,MgSbAsO5,2.8803
mvc-14364,MgSbF5,4.4268
mvc-15602,MgSbO3,2.055400000000001
mp-1100394,MgScB,0.041500000000000085
mp-1221965,MgScBO4,3.3711
mp-1097652,MgScCu2,0.07909999999999995
mp-961665,MgScGa,0.055400000000000116
mp-1232175,MgScS3,0.07119999999999971
mp-1103590,MgSe2,1.6340000000000001
mp-1180913,MgSe2(NO7)2,1.1676
mp-16771,MgSe2O5,3.0276999999999994
mp-12271,MgSeO3,4.0013
mp-560670,MgSeO4,3.1255
mp-1210605,MgSeO5,0.06830000000000003
mp-1193955,MgSi(HO)6,5.5147
mp-1078877,MgSi(HO2)2,4.7712
mp-1180350,MgSi(OF)6,0.2833999999999999
mp-1041887,MgSi2NiO6,3.743
mp-1020114,MgSi2O5,5.011099999999999
mp-1041480,MgSi2SnO6,3.1294000000000004
mp-1041873,MgSi2WO6,1.1501
mp-1043541,MgSi4NiO10,3.1467
mp-1043375,MgSi4SnO10,2.4399
mp-1043550,MgSi4WO10,2.217
mp-1016197,MgSiAs2,1.3031999999999997
mp-759312,MgSiH12(OF)6,5.6666
mp-1222016,MgSiNiO4,4.0039
mp-3470,MgSiO3,4.6484
mp-2961,MgSiP2,1.372800000000001
mp-1095933,MgSiPd2,0.3361000000000001
mp-1078680,MgSiSb2,0.8174000000000001
mp-11715,MgSn(BO3)2,3.623
mp-1043036,MgSn(GeO3)2,1.8365000000000005
mp-1044851,MgSn2(PO4)2,2.6719
mp-1043442,MgSn2(PO5)2,2.5621
mp-1042980,MgSn2O5,1.7777000000000005
mp-1048843,MgSn2P2O9,1.6000999999999994
mp-1046958,MgSn3(P2O7)2,1.9404
mp-1043943,MgSn3O7,0.8813000000000004
mp-1041400,MgSn4O9,0.7709000000000001
mp-1009082,MgSnAs2,0.40390000000000015
mp-1042426,MgSnAs2O7,2.0044
mvc-6096,MgSnAsO5,1.5261999999999998
mvc-14195,MgSnF4,3.8776
mvc-15683,MgSnF6,5.037
mp-1029791,MgSnN2,1.0621
mvc-13666,MgSnO2,0.6333000000000002
mp-1176491,MgSnO3,2.5586
mp-1009083,MgSnP2,1.2147000000000006
mp-1044868,MgSnP2O7,3.7419
mp-1093588,MgSnPt2,0.1323000000000003
mp-1040927,MgTa2(CuO4)2,0.3933000000000002
mp-1042599,MgTa2CoO7,2.8317
mvc-6298,MgTa2CuO7,0.5982000000000001
mp-9650,MgTa2O6,2.8397
mp-1210631,MgTa2Zn2O8,3.8112
mp-1042359,MgTaBiO5,3.3202000000000003
mp-1199775,MgTe(BrO)6,0.6567000000000001
mp-23888,MgTe(H4O3)3,4.4186
mp-1180390,MgTe(IO)6,0.2574000000000001
mp-1222171,MgTe(PbO3)2,2.2675
mp-2604,MgTe2,1.1161999999999992
mp-5746,MgTe2O5,2.3736000000000006
mp-1042084,MgTe2O7,1.2403000000000002
mp-1236964,MgTe3(ClO)6,0.08430000000000026
mp-1210722,MgTeMoO6,3.1466
mp-1222010,MgTi(BiO3)2,2.7407000000000004
mp-1042831,MgTi(GeO3)2,1.832
mp-1045598,MgTi(PO3)4,0.20530000000000026
mp-1044655,MgTi2(PO4)2,0.0060999999999999934
mp-1043685,MgTi2(PO4)3,0.16809999999999992
mp-561065,MgTi2(PO5)2,3.1210999999999998
mp-1047872,MgTi2Be3(SiO4)3,0.003099999999999881
mvc-7641,MgTi2CoO7,0.391
mp-1221959,MgTi2MnO6,2.4056
mp-1222255,MgTi2Nb2(PbO3)5,2.0179
mp-1221952,MgTi2NiO6,3.1159000000000003
mp-28232,MgTi2O5,2.7175
mp-1222091,MgTi2Pb4WO12,1.8637999999999997
mvc-12733,MgTi2S5,1.0292000000000003
mp-1221954,MgTi2ZnO6,3.1907000000000005
mp-1046926,MgTi3(P2O7)2,0.07580000000000009
mp-677094,MgTi3Nb2(PbO3)6,1.9826000000000008
mp-1043866,MgTi3O7,2.8266
mp-694933,MgTi3Pb5WO15,1.6852999999999998
mp-1222049,MgTi3ZnNiO9,3.0742000000000003
mp-1222070,MgTi4(PO4)6,2.4069000000000003
mp-1221997,MgTi4FeO10,1.5030999999999994
mp-1222066,MgTi4MnZnNiO12,2.2199
mp-1040872,MgTi4O9,2.5451
mp-1042457,MgTiAs2O7,3.1114999999999995
mvc-5438,MgTiAsO5,0.11399999999999988
mp-1044294,MgTiCo(PO4)3,1.0996
mp-1044303,MgTiCr(PO4)3,2.3987000000000003
mvc-14177,MgTiF4,0.40390000000000015
mvc-15827,MgTiF5,0.214
mvc-14678,MgTiF6,4.6182
mp-1044282,MgTiFe(PO4)3,2.3679
mp-864908,MgTiIr2,0.01309999999999967
mp-1029702,MgTiN2,0.6458000000000004
mp-686836,MgTiNb2(PbO3)4,2.3790000000000004
mp-1043031,MgTiNiP2O9,2.9911
mp-1045938,MgTiO2,0.24409999999999954
mp-3771,MgTiO3,3.5295
mp-1043960,MgTiP2O7,0.07259999999999955
mp-1046541,MgTiPO5,0.16270000000000007
mp-1046534,MgTiSiO5,3.0119
mp-1044309,MgTiV(PO4)3,1.4562
mp-1192073,MgTl2(PO4)4,0.0267
mp-1201988,MgTl2H12(SO7)2,4.675
mp-1197665,MgTl2H12(SeO7)2,4.0405
mp-556009,MgTlAs(H6O5)2,4.3811
mp-1210617,MgTlCl3,4.0098
mp-998739,MgTlF3,4.2135
mp-554894,MgTlP(H6O5)2,4.5212
mp-1210945,MgU(MoO4)4,1.8416
mp-1189016,MgU(PbO3)2,1.3339
mp-1222175,MgU2(AsO8)2,0.013700000000000044
mp-1197247,MgU2(PO11)2,0.003900000000000015
mp-1191161,MgU2(SiO9)2,0.109
mp-1211200,MgU2P2(H10O11)2,2.4168
mp-557384,MgUB2O7,2.2225
mp-7858,MgUO4,1.6931000000000005
mp-1043213,MgV(GeO3)2,0.057500000000000114
mp-1045828,MgV(PO3)4,2.7177
mp-1043519,MgV(Si2O5)2,1.8762
mp-1041866,MgV(SiO3)2,2.3313
mvc-12329,MgV2(BiO5)2,0.04820000000000002
mp-566620,MgV2(CuO4)2,0.17790000000000014
mp-1040887,MgV2(PO4)2,1.9825
mp-1043800,MgV2(PO5)2,1.7264
mvc-12282,MgV2(SiO4)3,1.5671999999999997
mp-1042542,MgV2CoO7,1.9566
mp-1041772,MgV2CuO7,0.3174999999999999
mp-19003,MgV2O5,2.3266
mp-504510,MgV2O6,2.7686
mp-1210781,MgV2P2(H4O7)2,2.3121
mp-565765,MgV2PbO7,2.5094
mp-1043428,MgV3(P2O7)2,2.0561
mp-773444,MgV3O7,2.3876
mp-705857,MgV3O8,1.8772
mp-1222158,MgV4Cu3O14,0.2276
mvc-12231,MgV4O8,0.6118999999999999
mp-1238596,MgV5H20NO22,0.1073
mp-1192534,MgVAgO4,2.2230000000000003
mp-1042807,MgVAs2O7,2.2409000000000003
mp-1047070,MgVAsO5,1.719
mp-566152,MgVBiO5,3.1101
mvc-14113,MgVBiO6,0.0285
mp-1221990,MgVCrO4,1.4925000000000006
mvc-3716,MgVF4,2.5083
mvc-14334,MgVF5,2.3599
mp-705896,MgVFeMo3O14,2.3731
mvc-8271,MgVNiP2O9,1.934
mp-1046254,MgVO2,0.4565000000000001
mp-540570,MgVO3,2.6932
mp-1048245,MgVP2O7,2.801
mp-1117592,MgVPO5,1.4879999999999995
mp-1046747,MgVSF5,0.29479999999999995
mp-1046694,MgVSiO5,1.2984999999999998
mp-1042288,MgW2O7,4.0943000000000005
mp-1048061,MgW4O9,1.0433
mvc-3351,MgWF4,1.0404
mvc-14224,MgWF5,3.3849
mvc-15861,MgWF6,3.746
mvc-5150,MgWO2,0.4589999999999996
mvc-5026,MgWO3,2.5393
mp-609151,MgWO4,3.3049
mp-1202763,MgWO6,1.2736999999999998
mp-1221978,MgZn(FeO2)4,1.2106
mp-1210656,MgZn2(AsO4)2,2.7
mp-1210603,MgZn2(PO4)2,3.9604
mp-697121,MgZn2H12(BrO)6,3.6444
mp-1221931,MgZn2O3,1.7099000000000002
mp-1203094,MgZn2P2(H6O5)4,4.376200000000001
mp-1097358,MgZn2Pd,0.6654
mp-1221958,MgZn3O4,1.2690000000000001
mp-1120718,MgZn3S4,2.2734999999999994
mp-1221986,MgZn4O5,0.971
mp-1210610,MgZn7O8,1.0137
mp-1096640,MgZnCu2,0.2603999999999997
mp-1222198,MgZnH12(CO3)4,4.6205
mp-1221905,MgZnO2,1.7175000000000002
mp-1221929,MgZnS2,2.5489999999999995
mp-1094479,MgZr,0.18279999999999985
mp-743697,MgZr3Tl10(MoO4)12,2.9435
mp-1222466,MgZr4(PO4)6,4.2911
mp-674477,MgZr4O9,3.7198
mp-1025460,MgZrF6,6.5421
mp-1029536,MgZrN2,1.3222
mp-1017000,MgZrO3,0.6316999999999999
mp-1196928,MgZrP2(H2O3)4,4.2371
mp-1221993,MgZrSi2O7,2.7410000000000005
mp-554049,Mn(AgO2)2,0.0585
mp-1104783,Mn(AlS2)2,1.0181000000000004
mp-1025315,Mn(AlTe2)2,0.3244999999999996
mp-761310,Mn(AsO2)2,1.9688
mp-19409,Mn(AsO3)2,1.7241
mp-1204859,Mn(BH4)2,1.8181
mp-1199954,Mn(BO2)2,4.4551
mp-1202491,Mn(BO4)4,0.059399999999999675
mp-763158,Mn(Bi5O8)5,1.3701999999999996
mp-1104183,Mn(BiSe2)2,0.6391
mp-1077840,Mn(BiTe2)2,0.4754000000000005
mp-581026,Mn(C2N3)2,1.5869
mp-1196299,Mn(CO)5,2.6138000000000003
mp-1212627,Mn(CO)6,0.4296000000000002
mp-768036,Mn(CO3)2,1.1769
mp-767807,Mn(CoO2)2,0.41029999999999933
mp-763057,Mn(CoO3)2,1.2121
mp-675163,Mn(CuCl2)2,1.1420000000000003
mp-1222040,Mn(CuS)2,0.09850000000000048
mp-18750,Mn(FeO2)2,0.9977000000000004
mp-20025,Mn(GaS2)2,1.1795
mp-20261,Mn(GaSe2)2,0.8566
mp-1043383,Mn(GeO3)2,0.6012000000000001
mp-703486,Mn(H2N)2,0.22640000000000005
mp-626701,Mn(HO)2,1.7222000000000002
mp-566835,Mn(IO3)2,2.5617
mp-22168,Mn(InS2)2,0.9208999999999996
mp-1221979,Mn(InTe2)2,0.3612000000000002
mp-1201350,Mn(N2O5)2,0.4654
mp-562609,Mn(NO3)2,2.7416
mp-780939,Mn(NO3)4,0.1423000000000001
mp-1180527,Mn(NO5)2,0.28880000000000017
mp-1189932,Mn(NbSe2)3,0.0020999999999995467
mp-19442,Mn(Ni3O4)2,1.3056
mp-763814,Mn(Ni9O10)2,1.3163
mp-1211062,Mn(O2F)2,0.7706999999999999
mp-558444,Mn(PO3)2,3.8754
mp-566876,Mn(PO3)3,1.1659
mp-540485,Mn(PO3)4,1.2741
mp-767220,Mn(PO4)2,1.0123
mp-31915,Mn(PbO2)2,0.7675000000000001
mp-627380,Mn(ReO4)2,3.1356
mp-566472,Mn(RhO2)2,0.9154999999999998
mp-771564,Mn(SO4)2,0.2713
mp-1211753,Mn(SO6)2,0.2136
mp-19231,Mn(SbO2)2,1.6342
mp-25043,Mn(SbO3)2,0.5120000000000005
mp-773338,Mn(SbO3)4,1.0968999999999998
mp-1210700,Mn(SbSe2)2,0.5008999999999997
mp-31983,Mn(SeO3)2,1.2896999999999998
mp-1142713,Mn(SiO3)2,0.8004000000000002
mp-1041563,Mn(WO4)2,0.6212999999999997
mp-850500,Mn11Fe(PO4)12,0.4387999999999999
mp-861549,Mn11ZnO16,0.6609999999999999
mp-850942,Mn12O7F17,0.2821999999999998
mp-565677,Mn13Al4Si2(SbO14)2,1.4192
mp-1176542,Mn13Cr3O32,0.8410000000000001
mp-762538,Mn13Fe11O32,0.4996
mp-578820,Mn13Si2SbO24,0.16540000000000046
mp-505018,Mn15(Br3O10)2,0.17090000000000005
mp-771190,Mn15CrO32,0.8657
mp-853227,Mn15NiO32,1.1139
mp-762590,Mn2(CO3)3,0.3537
mp-1101491,Mn2(PO3)5,0.012399999999999968
mp-771368,Mn2(SO4)3,0.6132000000000001
mp-1197378,Mn2(SeO4)3,0.15020000000000006
mp-1222372,Mn20O43,0.05090000000000017
mp-849596,Mn21O40,0.12419999999999964
mp-767308,Mn21Sn9O40,0.0034000000000000696
mp-542830,Mn23C6,0.002400000000000624
mp-762043,Mn23FeO32,0.6272000000000002
mvc-13994,Mn2Al2O7,1.4741
mp-19477,Mn2Al4Si5O18,3.907
mp-1221906,Mn2As2O7,1.2573
mp-1199645,Mn2As2O9,0.4385
mp-1202591,Mn2AsHO5,1.2506
mvc-13572,Mn2Be3(SiO4)3,0.24119999999999964
mp-1210699,Mn2Be3Tl2F12,4.1161
mp-1190266,Mn2Bi3O7,0.06380000000000052
mp-1221942,Mn2Bi3Sb3O14,1.5435
mp-540824,Mn2BiO5,0.4782000000000002
mp-565947,Mn2BiPO6,2.2474
mp-630859,Mn2C7S2O7,2.5792
mp-18720,Mn2CdO4,0.8848000000000003
mp-1221914,Mn2CdTeO6,0.5642999999999998
mp-1190593,Mn2ClO3,0.1944999999999999
mp-1211127,Mn2Co3(PO5)4,0.036599999999999966
mp-22702,Mn2Co3Ge,0.009199999999999877
mp-769913,Mn2Co3Te3O16,0.034399999999999764
mp-1221996,Mn2CoO4,0.6828000000000003
mp-1212202,Mn2Cr3(NO6)2,0.006599999999999939
mp-1222018,Mn2Cr3FeO8,1.7662999999999998
mp-764449,Mn2Cr3O12,0.6347
mp-1176495,Mn2Cr3Sb3O16,0.6787999999999998
mp-34139,Mn2CrO4,0.5625
mp-767158,Mn2CrO6,0.7083999999999999
mp-1105510,Mn2CrSbO6,1.7798999999999996
mp-1222021,Mn2Cu10Sb4S13,0.07419999999999938
mp-541670,Mn2Cu3H24(OF)12,0.6532
mp-745163,Mn2Cu5P4(HO9)2,0.006600000000000161
mp-1182304,Mn2CuH12(NO2)4,0.515
mp-765268,Mn2F7,0.5413999999999999
mp-567650,Mn2Fe(CN)6,2.0169
mp-1202382,Mn2Fe(CO)14,1.6864
mp-1223299,Mn2Fe(PO4)3,0.35129999999999995
mp-761447,Mn2Fe3P6WO24,2.4269
mp-775850,Mn2Fe3Sb(PO4)6,2.248
mp-704255,Mn2Fe3Sn2(CO)19,1.8867
mp-1210841,Mn2Fe5(SiO3)8,1.7092
mp-1222056,Mn2FeAg2(PO4)3,1.0233999999999996
mp-1094148,Mn2FeGe5,0.4219999999999997
mp-761563,Mn2FeO3,0.11319999999999995
mp-1189105,Mn2FeSbO6,1.2928999999999995
mp-25701,Mn2GeO4,1.0831
mp-633442,Mn2H2SO6,2.8086
mp-568698,Mn2H30C9N3Cl7,1.7453
mp-762853,Mn2H8S3(NO6)2,4.3865
mp-1003920,Mn2HO4,0.9188999999999998
mp-1204008,Mn2Hg(CO)10,2.7151
mp-1176488,Mn2HgO4,0.5007000000000001
mp-643670,Mn2In(CO)9,2.0948
mp-1190905,Mn2In2O7,1.1952999999999996
mp-683668,Mn2InC10BrO10,2.5023
mp-683791,Mn2InC10ClO10,2.454
mp-683652,Mn2InC10IO10,2.3988
mp-774229,Mn2InO5,0.8576999999999995
mp-1222032,Mn2InSbO6,0.4607000000000001
mp-1104385,Mn2Mo2NO10,0.06779999999999999
mp-18302,Mn2MoP12,0.11270000000000024
mp-1097644,Mn2MoRh,0.10740000000000016
mvc-12134,Mn2Nb2O9,0.8435000000000001
mp-566759,Mn2Nb2Zn2O9,1.7460999999999998
mvc-11109,Mn2Nb2ZnO9,0.6508999999999998
mvc-13332,Mn2Nb4Zn3O16,0.9178000000000002
mp-775988,Mn2NbFe3(PO4)6,2.2997
mp-1221840,Mn2NbFeO6,1.4979999999999998
mp-761703,Mn2Ni3P6WO24,0.02180000000000004
mp-565249,Mn2Ni6Te3PbO18,1.8032000000000004
mp-1221867,Mn2NiO3,0.6268000000000002
mp-25569,Mn2NiO6,1.0147
mp-504690,Mn2O2F9,0.6117000000000004
mp-565203,Mn2O3,0.1088
mp-554850,Mn2O7,1.8058000000000003
mp-764411,Mn2OF2,1.0902999999999996
mp-764303,Mn2OF4,0.1033
mp-570761,Mn2Os(CN)6,1.7793
mp-581203,Mn2P2C12S(O2F3)4,3.0239000000000003
mp-776862,Mn2P2H7NO10,0.7942999999999999
mp-18721,Mn2P2O7,3.265000000000001
mp-770557,Mn2P2O7F2,0.8102
mp-1040954,Mn2P2O9,0.012700000000000045
mp-31981,Mn2P3O10,0.07999999999999963
mp-770561,Mn2P4O13,1.1808
mp-699914,Mn2PC11SO8F9,3.1308
mp-566215,Mn2PClO4,3.1216
mp-762591,Mn2PH2CO7,2.1783
mp-744610,Mn2PH9(C4O3)3,2.9104
mp-18822,Mn2PO4F,2.7959
mp-770547,Mn2PO5,0.2271000000000001
mp-652402,Mn2Pt(CO)12,1.7916
mp-569321,Mn2Ru(CN)6,1.9348
mp-1200967,Mn2Sb2H8S5N4,0.8406000000000002
mp-562121,Mn2Sb2O7,0.30130000000000035
mp-1192820,Mn2Sb3I3O5,2.123
mp-1211935,Mn2Se3(NO6)2,0.0267
mp-743571,Mn2Si(H2O3)2,2.299
mp-25023,Mn2Si(P2O7)2,4.0241
mp-767344,Mn2Si2O7,0.5751
mp-566123,Mn2Si2Pb2O9,0.8781000000000003
mp-768088,Mn2Si4O11,1.0968999999999998
mp-18928,Mn2SiO4,2.3411
mp-5056,Mn2SiS4,0.35249999999999915
mp-17367,Mn2SiSe4,0.08139999999999993
mp-637929,Mn2SnC10(BrO5)2,2.4829
mp-637617,Mn2SnC10(ClO5)2,2.6813
mp-705194,Mn2SnC10BrO10,1.9026
mp-704550,Mn2SnC9BrO9,2.198
mp-699647,Mn2SnC9ClO9,2.325
mp-19702,Mn2Te3O8,2.4645
mp-1210598,Mn2TeO6,0.3414000000000001
mp-1195819,Mn2TeSO8,0.30020000000000024
mp-1211724,Mn2Tl2(MoO4)3,2.8031
mp-1210788,Mn2Tl2(SO4)3,4.3115
mp-1201236,Mn2V(PO5)2,0.16239999999999988
mp-19142,Mn2V2O7,1.204
mp-1210744,Mn2V2PbO10,0.010199999999999987
mp-774360,Mn2V3Ni(PO4)6,1.2682
mp-1176486,Mn2V3Sn(PO4)6,0.07460000000000022
mp-767701,Mn2VFe3(PO4)6,1.0704
mp-1210613,Mn2VPO7,1.9406000000000003
mp-1040884,Mn2Zn(PO4)2,2.4822999999999995
mvc-3981,Mn2Zn2O5,0.4041000000000001
mvc-5366,Mn2Zn3(GeO4)3,0.21419999999999995
mvc-4937,Mn2Zn3(Si2O7)2,1.6188000000000002
mvc-3903,Mn2Zn3(SiO4)3,0.1645000000000003
mvc-3621,Mn2Zn3O7,0.4834000000000001
mp-542904,Mn2ZnH12(NO2)4,1.4958999999999998
mp-18751,Mn2ZnO4,0.7286999999999999
mp-704268,Mn3(AgO2)4,0.6029999999999998
mp-1041708,Mn3(AsO4)4,0.7251
mp-1189523,Mn3(AsO7)2,0.2075
mp-19185,Mn3(BO3)2,2.0333
mp-540543,Mn3(CoO4)2,0.7563
mp-1004758,Mn3(HO3)2,0.04789999999999983
mp-762377,Mn3(Ni17O20)2,1.1391999999999998
mp-767330,Mn3(OF)2,0.8096000000000001
mp-850148,Mn3(OF2)2,1.0195999999999998
mp-772322,Mn3(P2O7)2,0.6493999999999999
mp-763259,Mn3(PO4)2,2.8392
mp-1211119,Mn3(SO6)2,0.14229999999999998
mp-773614,Mn3(SeO3)4,0.6671000000000001
mp-562330,Mn3Ag2(P2O7)2,1.9832
mp-633671,Mn3AgAs3(HO6)2,1.2202000000000002
mp-1154487,Mn3Al(SiO4)3,0.5711000000000004
mp-1211470,Mn3Al2(GeO4)3,2.3895000000000004
mp-19553,Mn3Al2(SiO4)3,3.5565000000000007
mvc-12890,Mn3Al2F15,1.4385
mp-1222576,Mn3Al4FeP4(H4O7)4,3.3145
mvc-13155,Mn3AlF15,0.20899999999999966
mp-861683,Mn3As(HO2)4,1.2746000000000002
mp-579836,Mn3B7BrO13,4.1137
mp-566077,Mn3B7ClO13,4.2083
mp-31917,Mn3B7IO13,3.8123
mp-541746,Mn3BO5,0.05699999999999994
mp-651122,Mn3Bi(CO)15,1.7823
mp-773993,Mn3BiO8,0.7575000000000001
mp-1221836,Mn3Cd3(TeO6)2,0.4853999999999998
mp-1221743,Mn3CdTe4,0.1924999999999999
mp-761652,Mn3Co(PO4)4,0.4988999999999999
mp-1211298,Mn3Co2(PO5)4,0.3938999999999999
mp-770859,Mn3Co3(CuO8)2,0.06909999999999994
mp-863857,Mn3Co3(SbO8)2,0.5298000000000003
mp-1221822,Mn3Co3(TeO6)2,0.9559000000000002
mp-771723,Mn3Co5O16,0.7014999999999998
mp-775395,Mn3Cr(PO4)4,0.18399999999999966