task_id,composition,band_gap
mp-764056,Na3(NiO2)2,0.7828000000000002
mp-764247,Na3(NiO2)5,0.4483999999999999
mp-1200977,Na3(PO3)4,0.18899999999999997
mp-1200484,Na3(PO4)2,0.13749999999999998
mp-675310,Na3(VSe2)5,0.12400000000000012
mp-1224252,Na34Cd6Ga92Cu7,0.15600000000000014
mp-1221250,Na3Ag(TeS3)2,1.2312
mp-1189708,Na3Ag3W2(OF)6,2.3239
mp-3527,Na3AgO2,1.1398
mp-9634,Na3AgS2,2.1755
mp-1197957,Na3Al(AsO4)2,3.3631
mp-556676,Na3Al2(AsO4)3,3.258
mp-1020161,Na3Al2(PO4)3,5.2294
mp-686540,Na3Al2P2O8F3,4.7689
mp-43068,Na3Al3Si3AgBrO12,3.3353
mp-1221765,Na3Al3Si3O14,0.4896
mp-8543,Na3AlAs2,0.8472
mp-1111450,Na3AlCl6,4.0067
mp-3416,Na3AlF6,6.714499999999999
mp-698350,Na3AlH10C6O17,3.2651000000000003
mp-23705,Na3AlH6,2.8136
mp-5122,Na3AlP2,1.3462999999999998
mp-707530,Na3AlP2H2O9,4.4885
mp-6860,Na3AlP3NO9,4.9929
mp-14389,Na3AlP8O23,5.2445
mp-560538,Na3AlS3,2.91
mp-9682,Na3AlSe3,2.3816
mp-1237086,Na3AlSiTe4,0.5963000000000003
mp-9680,Na3AlTe3,2.1234
mp-655,Na3As,0.06690000000000018
mp-707396,Na3As3(HO5)2,2.8694
mp-1222204,Na3As4H5O14,3.114
mp-30233,Na3As7,1.4262
mp-1110799,Na3AsBr6,2.4795
mp-1111448,Na3AsCl6,3.0988
mp-1110574,Na3AsF6,3.8108
mp-721287,Na3AsH14SO10,3.2541
mp-1180715,Na3AsH16(SO2)4,2.1504
mp-23961,Na3AsH18Se4O9,1.329
mp-720287,Na3AsH22S2O13,3.0169
mp-707391,Na3AsH24SeO15,3.2867
mp-756044,Na3AsO4,3.2282
mp-5830,Na3AsS3,2.5165
mp-1182770,Na3AsSO15,0.2512
mp-8686,Na3AsSe3,2.0081
mp-1180502,Na3Au(SO2)4,2.1687000000000003
mp-1110573,Na3AuF6,0.5824
mp-28365,Na3AuO2,1.974
mp-768915,Na3AuO3,1.8237
mp-15567,Na3AuS2,2.3033
mp-559783,Na3B(PO4)2,5.167999999999999
mp-1197849,Na3B2PO5F4,5.6096
mp-1203588,Na3B3(HO2)4,4.7814
mp-720583,Na3B3H2O7,4.5439
mp-722369,Na3B5(HO5)2,4.6581
mp-720296,Na3B5H4O11,4.6917
mp-29000,Na3B5S9,3.5062999999999995
mp-560266,Na3B5SO8,3.8692
mp-531600,Na3B5Se9,2.8213
mp-1197987,Na3B6BrO10,4.7266
mp-1195615,Na3B6ClO10,5.178999999999999
mp-558548,Na3B6NO13,3.2938
mp-556801,Na3B6PO13,4.7576
mp-31073,Na3B7O12,4.9219
mp-28630,Na3BN2,1.6479
mp-30975,Na3BO3,2.9456
mp-29370,Na3BP2,1.8442
mp-1221295,Na3BP4PbO16,0.03600000000000003
mp-29976,Na3BS3,2.5782
mp-770738,Na3BSbAsO7,2.9281
mp-768556,Na3BSbPO7,3.5102
mp-1211231,Na3Be3B3P6O25,1.008
mp-1221271,Na3Be3Pb2F13,5.3538
mp-556258,Na3BeAl(SiO4)2,4.3245
mp-775830,Na3Bi(BO3)2,3.1381
mp-561083,Na3Bi(PO4)2,4.2075
mp-738637,Na3Bi2H42C18I9(N2O3)3,0.0907
mp-754871,Na3BiAsCO7,0.34330000000000016
mp-770475,Na3BiBAsO7,3.2440999999999995
mp-768582,Na3BiBPO7,3.630100000000001
mp-1110572,Na3BiF6,3.9885
mp-27914,Na3BiO3,2.8361
mp-27345,Na3BiO4,0.9646
mp-1221224,Na3BrCl2,4.2312
mp-985586,Na3BrO,1.8795
mp-1213501,Na3C3S3O13,0.6701999999999999
mp-542719,Na3Ca(BO2)5,4.556699999999998
mp-694988,Na3Ca10Mn7V12O48,0.9016000000000002
mp-743773,Na3Ca18Fe(PO4)14,2.2236
mp-557506,Na3Ca2BiO6,1.7528
mp-735984,Na3Ca2Fe5(SiO3)10,0.8784999999999998
mp-677743,Na3Ca2Ta3Ti2O15,2.4216
mp-18480,Na3Ca2TaO6,4.244
mp-15572,Na3Ca3AlAs4,0.9449
mp-1190339,Na3Ca3AlSb4,0.4552000000000005
mp-705559,Na3Ca3Zr2Si4(O5F)3,3.0769999999999995
mp-694044,Na3Ca7Ta3Ti7O30,2.3925
mp-695506,Na3Ca7Ti7Nb3O30,1.1805
mp-705635,Na3CaAl3Si3CO15,1.148
mp-1173736,Na3CaAl3Si3SO16,4.029
mp-684921,Na3CaAl4Si8ClO24,4.8269
mp-1173803,Na3CaFe4(SiO3)8,1.2422000000000004
mp-1191931,Na3CaMg3AlF14,6.8594
mp-1221259,Na3CaMgCr3(SiO3)8,2.9716000000000005
mp-767552,Na3CaPCO7,4.2869
mp-1221261,Na3CaSc3Zn(SiO3)8,4.7424
mp-745173,Na3Cd4P6H10(ClO8)3,0.0919
mp-767430,Na3CdPCO7,3.1961
mp-556334,Na3Ce(PO4)2,3.5264000000000006
mp-556236,Na3Ce2C4O12F,0.25009999999999977
mp-1111933,Na3CeCl6,0.3117000000000001
mp-38102,Na3CeF7,2.6973000000000003
mp-28602,Na3ClO,2.0299
mp-773604,Na3Co(BO3)2,1.0234
mp-1181138,Na3Co(Mo3O16)2,0.4285000000000001
mp-19310,Na3Co(NO2)6,2.4684
mp-19087,Na3Co2SbO6,1.9080000000000004
mp-1221297,Na3Co6Ag(P2O7)4,2.5414
mp-773177,Na3CoAsCO7,2.6166
mp-771480,Na3CoBAsO7,0.3547999999999998
mp-771751,Na3CoBPO7,0.3669
mp-771403,Na3CoBSO7,2.0964
mp-1111934,Na3CoF6,1.2081
mp-31576,Na3CoO2,1.3483
mp-31584,Na3CoO3,1.7507
mp-770948,Na3CoPCO7,2.8697
mp-771468,Na3CoSiCO7,1.2908
mp-773526,Na3Cr(BO3)2,2.7158
mp-1201927,Na3Cr(Mo3O16)2,0.2544
mp-19542,Na3Cr2(AsO4)3,2.6075
mp-1221294,Na3Cr2(PO4)3,2.753
mp-559281,Na3Cr2(PS4)3,1.2925
mp-744941,Na3Cr2P2O8F3,2.4582
mp-771454,Na3CrAsCO7,1.5635000000000003
mp-772378,Na3CrBAsO7,2.5311
mp-771752,Na3CrBPO7,2.8333000000000004
mp-1224423,Na3CrC6O17,0.4464
mp-28360,Na3CrCl6,1.7196
mp-560929,Na3CrF6,4.0586
mp-744027,Na3CrH10C6O17,3.2158
mp-743988,Na3CrH14(C3O8)2,3.5970000000000004
mp-1210429,Na3CrO4,0.955
mp-24903,Na3CrP8O23,3.4911000000000003
mp-769634,Na3CrPCO7,2.4999
mp-771561,Na3CrSiBO7,0.9356
mp-771435,Na3CrSiCO7,2.6464000000000003
mp-1210638,Na3Cu2(MoO4)3,0.18900000000000008
mp-759535,Na3Cu5O4,1.3018
mp-772153,Na3CuAsCO7,0.125
mp-722906,Na3CuB8H17O23,0.6148
mp-770795,Na3CuBSO7,0.6300999999999997
mp-772726,Na3CuCSO7,1.2205000000000004
mp-755401,Na3CuO2,1.3658
mp-28556,Na3CuO3,0.7792000000000001
mp-767526,Na3CuPCO7,0.1440999999999999
mp-623030,Na3CuSnSe4,0.6482999999999999
mp-1211075,Na3Dy(PO4)2,4.9411000000000005
mp-555604,Na3Dy(Si2O5)3,4.5070000000000014
mp-1210536,Na3DyBr6,4.2259
mp-982980,Na3DyCl6,5.2201
mp-689927,Na3DyTi2Nb2O12,2.5154999999999994
mp-1211481,Na3Er(PO4)2,4.9706
mp-1210529,Na3ErBr6,4.2104
mp-28542,Na3ErCl6,5.2281
mp-1221247,Na3ErTi2Nb2O12,2.6105
mp-568015,Na3ErV2O8,3.6248
mp-772695,Na3Fe(BO3)2,2.2908
mp-19028,Na3Fe(PO4)2,2.4126000000000003
mp-1196866,Na3Fe(SO4)3,2.2348
mp-1202597,Na3Fe(SO5)3,0.4734
mp-566314,Na3Fe2(AsO4)3,2.1857
mp-560526,Na3Fe2(MoO4)3,0.6301999999999999
mp-565252,Na3Fe2(PO4)3,2.2767
mp-769570,Na3Fe2P(CO4)4,0.04710000000000003
mp-581813,Na3Fe2P2O8F3,2.3434
mp-566509,Na3Fe3(PO4)4,2.2211000000000003
mp-764418,Na3Fe5O8,1.1562999999999994
mp-559275,Na3Fe5O9,1.723
mp-771494,Na3FeAsCO7,2.5037000000000003
mp-771393,Na3FeBAsO7,2.0654
mp-771743,Na3FeBPO7,2.096
mp-774247,Na3FeBSO7,2.6907000000000005
mp-1182787,Na3FeC6O17,0.09210000000000007
mp-560311,Na3FeF6,4.1281
mp-1201957,Na3FeH10C6O17,2.5839999999999996
mp-566513,Na3FeO3,2.0396
mp-764457,Na3FeO4,0.3168000000000002
mp-1203748,Na3FeP8O23,2.964
mp-24996,Na3FePCO7,3.4534
mp-1194982,Na3FeS2(O4F)2,2.546
mp-771513,Na3FeSiCO7,2.7053
mp-561058,Na3Ga(PO4)2,4.0408
mp-556143,Na3Ga3(TeO6)2,1.8466
mp-1221369,Na3Ga3Ge3O16,0.003099999999999881
mp-766463,Na3GaB4O9,4.3701
mp-1110798,Na3GaBr6,1.48
mp-1111445,Na3GaCl6,2.8533
mp-1110570,Na3GaF6,5.3519000000000005
mp-733844,Na3GaP2H2O9,3.9887000000000006
mp-14390,Na3GaP8O23,5.0014
mp-18165,Na3GaS3,2.7538
mp-17148,Na3GaSe3,2.0823
mp-1194955,Na3Gd(CO3)3,2.7049000000000003
mp-1180408,Na3Gd(PO4)2,3.0221
mp-1173681,Na3GdBr6,2.1976
mp-33554,Na3GdCl6,2.8675
mp-675237,Na3GdI6,1.5033
mp-1221269,Na3GdTi2Nb2O12,2.4762000000000004
mp-1212330,Na3GdV2O8,3.1522
mp-740722,Na3GeH11O9,3.8724
mp-1204648,Na3GeMo3O19,0.7826
mp-756494,Na3GePCO7,4.187900000000001
mp-18411,Na3GeSe3,1.8881
mp-16930,Na3GeTe3,1.3032
mp-23780,Na3H(SO4)2,5.1855
mp-1173843,Na3H12Ru2(C2O9)2,0.7351
mp-1210467,Na3H2SNO8,3.2489000000000003
mp-1199469,Na3H4Au(SO2)4,3.1941
mp-555083,Na3H5(CO2)4,4.4589
mp-23852,Na3H5(CO4)2,4.6108
mp-1193700,Na3H5(SeO4)4,3.4599
mp-707836,Na3H6Ir,3.3028000000000004
mp-24747,Na3H6Rh,3.1017
mp-720901,Na3H6S2NO10,3.7635
mp-1210530,Na3H7(CO3)2,0.6756
mp-863011,Na3H7Os,2.6299
mp-698032,Na3H7Ru,2.5195
mp-34579,Na3HfF7,6.2464
mp-1211201,Na3Ho(PO4)2,4.9723000000000015
mp-1210506,Na3HoBr6,4.2119
mp-29836,Na3HoCl6,5.2294
mp-1195700,Na3HoSi2O7,3.9656
mp-676988,Na3HoTi2Nb2O12,2.5575
mp-769398,Na3IO,1.6772
mp-6017,Na3In(PO4)2,3.2621
mp-22804,Na3In2(AsO4)3,2.2536
mp-17349,Na3In2(PO4)3,3.2115
mp-21622,Na3InAs2,0.1482000000000001
mp-580161,Na3InBi2,0.06889999999999974
mp-1111704,Na3InBr6,1.8617
mp-23503,Na3InCl6,3.7823
mp-1210420,Na3InF6,5.1378
mp-1212848,Na3InH3(SO4)3,3.0843
mp-21577,Na3InP2,0.6425999999999998
mp-29375,Na3InS3,2.2716000000000003
mp-21547,Na3InSb2,0.28480000000000016
mp-22102,Na3Ir(NO2)6,2.6253
mp-1110568,Na3IrF6,1.939
mp-1211118,Na3La(AsO4)2,3.6405
mp-1210472,Na3La(BO3)2,3.7335
mp-1210985,Na3La(PO4)2,4.660500000000001
mp-560129,Na3La2(BO3)3,3.7902
mp-1173723,Na3La5Cl18,3.7015
mp-1173864,Na3La8Ti9Mn3O36,1.1728000000000005
mp-6760,Na3La9B8O27,4.0102
mp-1203724,Na3LaMn3(AsO5)3,1.3743
mp-695512,Na3LaTi2Nb2O12,1.7230000000000003
mp-579223,Na3LaV2O8,3.7596
mp-1203254,Na3Li(MoO7)2,0.3096000000000001
mp-1020163,Na3Li2Al(SiO4)2,4.051
mp-775329,Na3Li2Fe5(SiO3)10,2.7055
mp-6711,Na3Li3Al2F12,7.0872
mp-557327,Na3Li3Co2F12,1.8826
mp-561330,Na3Li3Cr2F12,4.0883
mp-561280,Na3Li3Fe2F12,4.0681
mp-1176351,Na3Li3Fe2P2(CO7)2,3.7651
mp-6527,Na3Li3In2F12,5.2896
mp-1176371,Na3Li3Mn2P2(CO7)2,3.5865000000000005
mp-1210682,Na3Li3Rh2F12,1.9764
mp-14023,Na3Li3Sc2F12,6.8685
mp-558769,Na3Li4Th6F31,6.3088
mp-765725,Na3Li5Mn5O9,0.5596000000000001
mp-556906,Na3LiBe2F8,6.9864
mp-775936,Na3LiCuPCO7,1.5761000000000005
mp-1221254,Na3LiFe4(SiO3)8,2.7184000000000004
mp-1221279,Na3LiGa4(SiO3)8,4.1975
mp-1221336,Na3LiMg4(Si2O5)6,4.343
mp-762649,Na3LiMn5O9,0.5640000000000001
mp-763842,Na3LiMnBPO7,2.4324000000000003
mp-735483,Na3LiMo2(H6O7)2,4.6221
mp-1020164,Na3LiP2O7,4.8511
mp-761144,Na3LiSbP2O9,0.0030000000000001137
mp-1210400,Na3LiTi2F12,4.7732
mp-1221217,Na3LiV4O12,3.1673
mp-566232,Na3LiWO5,3.8186
mp-1205167,Na3LiY3P3CO15F2,4.4328
mp-1210441,Na3LuBr6,4.1987
mp-1111891,Na3LuCl6,3.9147
mp-554463,Na3LuSi2O7,3.946600000000001
mp-683990,Na3Mg(BO2)5,4.5905
mp-1210518,Na3Mg2(MoO4)3,1.156
mp-1210564,Na3Mg2(WO4)3,1.9751
mp-1221913,Na3Mg2Mn4Be6Si9(SnO13)3,0.03519999999999968
mp-555005,Na3Mg2P5O16,4.8098
mp-532701,Na3Mg3In(SO4)6,3.7996
mp-1210397,Na3Mg4(MoO4)6,0.006500000000000061
mp-743787,Na3Mg4CrSi8(O11F)2,1.1580000000000004
mp-1173861,Na3Mg4InSi8(O11F)2,4.084899999999998
mp-1221605,Na3Mg5Si8(HO8)3,4.134500000000001
mp-686601,Na3MgAlSi7O18,4.810500000000001
mp-646116,Na3MgC2BrO6,3.8547
mp-23653,Na3MgC2ClO6,4.1751
mp-643658,Na3MgP2HO8,4.863899999999999
mp-1197608,Na3MgP3(H12O11)2,4.9643
mp-768154,Na3MgPCO7,4.5243
mp-690382,Na3MgZr(PO4)3,3.9455
mp-773605,Na3Mn(BO3)2,1.4053000000000002
mp-1221286,Na3Mn2BO6,1.8179
mp-1176377,Na3Mn2P2(CO7)2,0.8205
mp-985626,Na3Mn2SbO6,1.1822
mp-1211859,Na3Mn5(Ge3O10)2,0.3664000000000001
mp-771476,Na3MnAsCO7,2.3828
mp-770765,Na3MnBAsO7,1.4399
mp-770015,Na3MnBPO7,1.4831
mp-773188,Na3MnBSO7,2.4281
mp-1221227,Na3MnCoNiO6,0.5625999999999998
mp-561200,Na3MnF6,1.6641
mp-773752,Na3MnO3,1.2644999999999995
mp-1210504,Na3MnO4,1.7171999999999998
mp-19261,Na3MnPCO7,3.2988
mp-1195590,Na3MnS2(O4F)2,1.3311
mp-773957,Na3MnSiBO7,1.1301000000000003
mp-772480,Na3MnSiCO7,1.1273
mp-1029845,Na3Mo2N5,1.8154
mp-1106352,Na3MoCl6,1.7409
mp-579529,Na3MoH6(CO2)6,3.8578
mp-541291,Na3MoN3,1.4075
mp-19105,Na3MoNO3,3.5654
mp-1210288,Na3MoO4,1.364
mp-675597,Na3NO2,1.1272
mp-1176513,Na3NO3,0.9429999999999998
mp-560068,Na3NO4,3.7504
mp-1221291,Na3Nb6Bi5O24,1.8541000000000003
mp-1221330,Na3Nb7P4O29,1.8491
mp-1200323,Na3NbAs2O9,3.1321
mp-1200790,Na3NbHO2F7,2.7515
mp-27247,Na3NbO4,3.7689
mp-561259,Na3NbOF6,5.0991
mp-1196173,Na3NbS4,2.23
mp-1210809,Na3Nd(AsO4)2,3.5957000000000003
mp-558805,Na3Nd(BO3)2,3.7653
mp-1210619,Na3Nd(PO4)2,4.9466
mp-679958,Na3Nd2(NO3)9,3.4965
mp-675555,Na3Nd5Cl18,4.3701
mp-1210255,Na3Nd9B8O27,3.9691
mp-1113503,Na3NdCl6,3.7876
mp-1221237,Na3NdTi2Nb2O12,2.4731000000000005
mp-706588,Na3NdV2O8,3.6913
mp-773407,Na3Ni(BO3)2,0.044300000000000006
mp-764271,Na3Ni2O5,0.4942000000000002
mp-769490,Na3Ni2P2(CO7)2,0.0272
mp-971678,Na3Ni2SbO6,2.3299
mp-771547,Na3NiAsCO7,3.304
mp-771589,Na3NiBAsO7,0.6496999999999999
mp-770066,Na3NiBPO7,0.20890000000000009
mp-771483,Na3NiBSO7,2.6897999999999995
mp-554649,Na3NiF6,2.4063
mp-764659,Na3NiO2,1.4455
mp-781774,Na3NiO3,1.6847
mp-770968,Na3NiPCO7,4.0068
mp-864664,Na3Np(HO3)2,1.2524
mp-1211073,Na3Np6FeF30,0.049499999999999655
mp-1180306,Na3NpO10,0.5047999999999999
mp-1180326,Na3NpO6,0.03710000000000002
mp-1180379,Na3NpO8,0.5741999999999998
mp-1029595,Na3OsN2,0.6867000000000001
mp-555476,Na3OsO5,0.0889000000000002
mp-1598,Na3P,0.4046000000000001
mp-558432,Na3P(SO)2,3.2791999999999994
mp-473,Na3P11,1.8326
mp-696019,Na3P2H4O7,3.5798999999999994
mp-1197775,Na3P3H5N3O7,4.7429000000000014
mp-1210367,Na3P3N3O7,0.07569999999999999
mp-1210446,Na3P6(PbO9)2,0.5991999999999997
mp-28161,Na3P6N11,3.817800000000001
mp-1213582,Na3PCO11,0.2766
mp-1180586,Na3PH12CO11,4.3584
mp-540885,Na3PH16(SO2)4,2.8701
mp-761853,Na3PH22(SO4)3,3.1109
mp-695398,Na3PH24SO15,0.7930000000000001
mp-1212545,Na3PH3S2N3O8,0.7736999999999999
mp-1182739,Na3PO12,0.014299999999999981
mp-1173671,Na3PO4,3.9124
mp-11738,Na3PS3O,2.8296
mp-28782,Na3PS4,2.2814000000000005
mp-542136,Na3PSO3,3.8961
mp-1078419,Na3PSe4,1.1054000000000002
mp-27478,Na3PaF8,4.2399
mp-677013,Na3Pb2S3ClO12,4.148300000000001
mp-1210235,Na3Pd5F12,0.07800000000000007
mp-1210670,Na3Pr(AsO4)2,3.5807
mp-1210844,Na3Pr(PO4)2,4.9234
mp-676095,Na3Pr5Cl18,4.3891
mp-1111889,Na3PrCl6,3.7676
mp-1221231,Na3PrTi2Nb2O12,2.2738
mp-1211038,Na3PrV2O8,3.6897
mp-28205,Na3ReO5,2.4287
mp-14374,Na3Rh(NO2)6,2.6311
mp-1114259,Na3RhF6,1.9022
mp-1198628,Na3RuO4,0.3945999999999996
mp-1194422,Na3SNO8,0.7948999999999999
mp-560222,Na3SO4F,5.1205
mp-776965,Na3Sb(PO4)2,4.092
mp-556577,Na3Sb3(AsO7)2,1.5102000000000002
mp-1210360,Na3Sb3(PO7)2,1.8235
mp-28286,Na3Sb5F18,4.3786
mp-779589,Na3Sb5O14,1.1817000000000002
mp-1111701,Na3SbBr6,2.4687
mp-1111607,Na3SbCl6,2.8762
mp-1111642,Na3SbF6,0.00029999999999996696
mp-24440,Na3SbH18S4O9,2.2043
mp-782105,Na3SbH30S3N10,2.7219
mp-1110813,Na3SbI6,1.8721
mp-8076,Na3SbO3,3.0881000000000003
mp-7404,Na3SbO4,2.1241
mp-560642,Na3SbP2O9,2.6288
mp-1193673,Na3SbS3,2.4046
mp-1180496,Na3SbS4O9,2.5389000000000004
mp-1193265,Na3SbSe3,2.0466
mp-8703,Na3SbSe4,0.9766
mp-9191,Na3SbTe3,1.4544999999999997
mp-1191513,Na3Sc(BO3)2,3.6325
mp-561018,Na3Sc2(BO3)3,3.7232
mp-1210415,Na3Sc2(MoO4)3,1.3487999999999998
mp-16956,Na3Sc2(PO4)3,4.6575
mp-1210424,Na3Sc2(WO4)3,2.1015
mp-19566,Na3Sc2V3O12,3.2084
mp-29417,Na3ScBr6,3.3731
mp-1189516,Na3ScCl6,3.9911
mp-4185,Na3ScF6,6.8420000000000005
mp-1110812,Na3ScI6,2.1552
mp-557463,Na3ScSi2O7,3.7748
mp-1180369,Na3Si2PO8,3.0369
mp-560937,Na3Si3SnO9F,3.8343
mp-768663,Na3SiBiCO7,3.2499
mp-707571,Na3SiH11O9,4.1942
mp-707333,Na3SiH3O5,3.8945
mp-721564,Na3SiH5O6,3.8647
mp-772713,Na3SiSbCO7,3.0099
mp-28303,Na3SiSe4,1.7548
mp-772986,Na3SiSnBO7,2.8195
mp-17291,Na3SiTe3,1.9235999999999995
mp-1210769,Na3Sm(PO4)2,4.9424
mp-677015,Na3Sm17Si12(O25F)2,4.656700000000002
mp-673807,Na3Sm7Cl24,4.3100000000000005
mp-685415,Na3SmBr6,4.1353
mp-1113506,Na3SmCl6,3.8194
mp-1201950,Na3SmMn3(AsO5)3,1.2884
mp-1221232,Na3SmTi2Nb2O12,2.3890000000000002
mp-1210666,Na3SmV2O8,3.6695
mp-770646,Na3SnAsCO7,2.4229000000000003
mp-757172,Na3SnPCO7,3.0837
mp-6775,Na3Sr(BO2)5,4.561
mp-1173878,Na3Sr14La3Ti20O60,1.7231999999999998
mp-695175,Na3Sr14Nd3Ti20O60,1.8440000000000003
mp-1210298,Na3Sr2Ti3(Si2O9)2,0.059400000000000126
mp-41095,Na3Sr3AlP4,1.1233
mp-10097,Na3Sr3GaAs4,0.4419
mp-10096,Na3Sr3GaP4,0.7488999999999999
mp-1210275,Na3Sr3GaSb4,0.3064999999999998
mp-667386,Na3Sr4Al5F26,6.9159000000000015
mp-1201930,Na3Sr4Cr5F26,3.3267
mp-695582,Na3Sr4La3Ti10O30,1.9424
mp-686697,Na3Sr4Nd3Ti10O30,1.964
mp-40519,Na3Sr7Ta3Ti7O30,1.7944000000000004
mp-677709,Na3Sr7Ti7Nb3O30,1.7047000000000003
mp-13726,Na3SrLaZnSi6O17,4.5776
mp-767431,Na3SrPCO7,4.052899999999998
mp-677431,Na3SrTiNb3O12,1.5699999999999998
mp-17245,Na3TaF8,4.8575
mp-1202226,Na3TaS4,2.6447000000000003
mp-1211011,Na3Tb(PO4)2,4.9449000000000005
mp-1210309,Na3TbBr6,4.2239
mp-1113313,Na3TbCl6,3.8615
mp-1221228,Na3TbTi2Nb2O12,2.6506000000000003
mp-1210894,Na3TbV2O8,3.6631
mp-1197998,Na3Te(PO7)2,0.025800000000000045
mp-1197527,Na3Th10BeF45,6.2138
mp-1221381,Na3Th6ZnF29,5.1777
mp-558272,Na3ThP3O11,4.9705
mp-1210891,Na3Ti2Mn3Si4(O8F)2,0.0060999999999999934
mp-41191,Na3Ti2P2O10F,3.1952
mp-29850,Na3TiCl6,0.07489999999999998
mp-1210257,Na3TiF6,0.17720000000000002
mp-1190997,Na3TiF8,1.1827
mp-1221213,Na3TiFe3O8,1.8038000000000003
mp-16140,Na3TiP8O23,0.21039999999999992
mp-1111700,Na3TlBr6,0.8709
mp-1111000,Na3TlF6,3.455
mp-686722,Na3TlH24(ClO2)6,2.3972
mp-29454,Na3TlO2,1.8471
mp-1195518,Na3Tm(SiO3)3,4.2135
mp-1210332,Na3TmBr6,4.1991
mp-1111504,Na3TmCl6,3.8983
mp-555421,Na3TmSi2O7,3.961
mp-1221233,Na3TmTi2Nb2O12,2.62
mp-1213344,Na3U2H28S10N9O44,0.008000000000000007
mp-1191243,Na3U2O10F7,0.2983
mp-1194950,Na3U6AlF30,0.1741999999999999
mp-1195887,Na3U6CrF30,0.1109
mp-1195790,Na3U6GaF30,0.1774
mp-1194641,Na3U6TiF30,0.026499999999999968
mp-34842,Na3UO4,0.1274999999999995
mp-773603,Na3V(BO3)2,2.0938000000000003
mp-1181458,Na3V(MoO7)3,0.8069
mp-565779,Na3V(SO)2,2.3954
mp-777202,Na3V2(PO4)3,1.9185
mp-1176383,Na3V24O58,0.8297000000000001
mp-694999,Na3V2P2O10F,2.093
mp-694937,Na3V2P2O8F3,2.2722
mp-1202673,Na3V3Cr2O12,2.2643
mp-1237969,Na3V3H6O7,0.606
mp-1176342,Na3V3O8,1.6907
mp-1199993,Na3V5(H12O13)2,2.4283
mp-1201033,Na3V5H26O27,2.4523
mp-765742,Na3V5O10,0.5230000000000001
mp-863288,Na3V5O23,0.26930000000000004
mp-771560,Na3VAsCO7,1.2654999999999994
mp-566438,Na3VB6O13,3.4863
mp-772734,Na3VBAsO7,2.2396000000000003
mp-780595,Na3VBPO7,2.0249
mp-556633,Na3VF6,2.5425
mp-743514,Na3VH11IO13,0.177
mp-643263,Na3VH6O7,3.9991
mp-1180812,Na3VIO13,0.2528
mp-778022,Na3VO3,0.40390000000000015
mp-780545,Na3VO4,4.0296
mp-1193226,Na3VP2O9,1.1635
mp-25116,Na3VP8O23,2.4174000000000007
mp-769592,Na3VPCO7,2.1544
mp-1194885,Na3VS2(O4F)2,2.3587
mp-19422,Na3VS3O,2.0204
mp-29143,Na3VS4,1.4700999999999995
mp-565254,Na3VSO3,3.1489999999999996
mp-743949,Na3VSi4(HO6)2,2.2359000000000004
mp-771491,Na3VSiBO7,1.5682000000000005
mp-771420,Na3VSiCO7,1.8558
mp-1221209,Na3W2(ClO)4,0.3235999999999999
mp-1029565,Na3W2N5,2.2342000000000004
mp-583762,Na3W3Cl13,0.918
mp-16839,Na3WN3,1.7679
mp-1221211,Na3WNO3,3.2001
mp-565594,Na3WO4F,4.4655000000000005
mp-556039,Na3Y(BO3)2,3.6611
mp-1194479,Na3Y(CO3)3,5.0044
mp-1210758,Na3Y(PO4)2,4.9598
mp-1221246,Na3Y(Si2O5)3,4.5958000000000006
mp-1203085,Na3Y(SiO3)3,4.2323
mp-29080,Na3YBr6,4.2541
mp-1221283,Na3YC2(O3F)2,4.8839999999999995
mp-675104,Na3YCl6,5.2756
mp-1114251,Na3YF6,5.1262
mp-601241,Na3YH12(CO5)3,4.5907
mp-734150,Na3YH6(CO4)3,4.888999999999999
mp-1111773,Na3YI6,2.4016
mp-1221257,Na3YSi2O7,4.0004
mp-1210351,Na3YbBr6,0.01749999999999996
mp-1221357,Na3YbC2(O3F)2,0.0212
mp-1194977,Na3YbSi2O7,0.004700000000000038
mp-1020160,Na3Zn(BO2)5,4.222099999999998
mp-1210389,Na3Zn2(MoO4)3,1.4564
mp-1210410,Na3Zn2(WO4)3,1.8342
mp-850445,Na3Zn4As3H12O19,2.9931
mp-1204305,Na3Zn4P3O19,0.0882
mp-772852,Na3Zn4P4H4NO16,3.8467
mp-767545,Na3ZnPCO7,3.7795
mp-1210380,Na3Zr(SiO3)6,0.0932
mp-532695,Na3Zr2Si2PO12,4.5425
mp-706238,Na3Zr3Fe(PO4)6,2.417
mp-36225,Na3ZrF7,6.1421
mp-1173804,Na3ZrNi(PO4)3,3.7566000000000006
mp-31229,Na4(BSe)9,2.206
mp-1221268,Na4(Fe2O3)5,0.0007999999999999119
mp-765696,Na4(NiO2)5,0.5188999999999999
mp-764295,Na4(NiO2)9,0.5914999999999999
mp-1221262,Na4(WO3)5,0.5935000000000001
mp-1221198,Na4AgCl5,2.7038
mp-695373,Na4Al11Si13Ag7O48,1.5011
mp-1221240,Na4Al2GaSi3BrO12,4.3811
mp-720655,Na4Al2Si6ClO24,0.0615
mp-542090,Na4Al3(SiO4)3,0.2618999999999998
mp-1221255,Na4Al3Cr(P2O7)4,3.4102
mp-1221226,Na4Al3Fe(SiO3)8,2.9625
mp-1221194,Na4Al3FeO8,3.4687
mp-535042,Na4Al3Ge3B(HO3)4,4.3746
mp-559084,Na4Al3Ge3BrO12,4.0539000000000005
mp-559286,Na4Al3Ge3ClO12,4.2529
mp-23651,Na4Al3Ge3IO12,3.4006
mp-720104,Na4Al3Ge3NO14,2.7976
mp-677474,Na4Al3Ge3NO15,0.010000000000000007
mp-1221239,Na4Al3Ge3O13,0.9946
mp-694981,Na4Al3Si3B(HO3)4,4.9472
mp-1173755,Na4Al3Si3B(O3F)4,0.5197
mp-23147,Na4Al3Si3BrO12,4.609800000000001
mp-1173717,Na4Al3Si3CNO13,4.367
mp-23145,Na4Al3Si3ClO12,4.6948
mp-1173771,Na4Al3Si3ClO16,0.7474
mp-1173789,Na4Al3Si3H3O14,0.9309
mp-39140,Na4Al3Si3HO13,4.0558000000000005
mp-23655,Na4Al3Si3IO12,4.1507
mp-1210341,Na4Al3Si3NO12,0.00010000000000021103
mp-676449,Na4Al3Si3NO13,0.8347000000000002
mp-1173714,Na4Al3Si3NO14,2.7578
mp-1173748,Na4Al3Si3NO15,0.3508999999999999
mp-676431,Na4Al3Si9ClO24,4.5204
mp-758693,Na4Al4H10O13,4.3167
mp-1210204,Na4Al6ClO12,0.3647
mp-1221260,Na4AlCr3(P2O7)4,2.9597
mp-1221220,Na4AlFe3O8,2.4021
mp-741045,Na4AlP2HO9,4.4207
mp-27197,Na4As2O7,3.1898
mp-1221862,Na4AsP(H15O11)2,4.0049
mp-27564,Na4B2O5,3.6854
mp-769713,Na4B4Sb2SO16,1.882
mp-706336,Na4Be2Si6Sn(HO5)4,4.0735