task_id,composition,band_gap
mp-646008,Gd10S19,0.3403999999999998
mp-651087,Gd13Ge6O31F,2.9604000000000004
mp-779225,Gd2(WO4)3,3.7926
mp-767404,Gd2As4O11,2.484
mp-767401,Gd2AsO5,2.2475000000000005
mp-557726,Gd2Au5F21,1.6190000000000002
mp-554636,Gd2B(OF)3,2.7369
mp-28702,Gd2B3C2,0.019199999999999662
mp-31369,Gd2B4O9,2.8237
mp-650715,Gd2Be2GeO7,3.2536
mp-1212449,Gd2Be2SiO7,3.3345
mp-618813,Gd2Br3,0.25290000000000035
mp-505435,Gd2Br3N,1.8727
mp-1025163,Gd2C(NO)2,2.6738
mp-29394,Gd2CCl2,0.4887999999999999
mp-8301,Gd2CF2,0.7328000000000001
mp-754093,Gd2CdO4,1.616
mp-677075,Gd2CdS4,1.4040999999999997
mp-677132,Gd2CdSe4,0.9607
mp-1078829,Gd2Cl3,0.17220000000000013
mp-1190470,Gd2CoTe2(SO7)2,2.3629
mp-1184487,Gd2Cr2O5,0.012299999999999756
mp-1224730,Gd2CrSbO7,1.8027000000000009
mp-1212638,Gd2Cu(GeO3)4,0.8903000000000001
mp-1212657,Gd2Cu(GeO4)2,0.5537000000000001
mp-17465,Gd2Cu(SeO3)4,0.5251000000000001
mp-1224759,Gd2FeSbO7,0.12340000000000018
mp-1224682,Gd2GaSbO7,2.1167
mp-1196136,Gd2Ge(BO4)2,3.1916
mp-581229,Gd2Ge2O7,2.7787
mp-1224706,Gd2GeMoO8,2.5111
mp-561584,Gd2GeO5,3.113
mp-1213333,Gd2Hf2(MoO4)7,3.0498
mp-1190245,Gd2Hf2O7,2.8689000000000004
mp-754041,Gd2HfO5,3.1449000000000003
mp-1195809,Gd2HfS5,0.9802
mp-756040,Gd2HgO4,1.9117
mp-20654,Gd2InPd2,0.01729999999999965
mp-1225008,Gd2InSbO7,2.1494
mp-1184317,Gd2Mg2O5,0.4447999999999994
mp-1212711,Gd2MgPtO6,1.9755
mp-1232233,Gd2MgS4,1.2497000000000005
mp-1232144,Gd2MgSe4,0.9814000000000004
mp-1225903,Gd2Mn(GeO3)4,2.1463
mp-1225126,Gd2Mn3Sb3O14,0.9453000000000004
mp-1224833,Gd2MnCoO6,1.0362
mp-1212655,Gd2MnNiO6,1.8440000000000003
mp-674348,Gd2MnS4,0.8617999999999997
mp-1224711,Gd2MnSbO7,0.1924999999999999
mp-583574,Gd2Mo(SeO4)3,2.7361999999999997
mp-566780,Gd2Mo4O15,2.5091
mp-704238,Gd2Mo5O18,3.1154
mp-583774,Gd2MoO6,2.0817
mp-28279,Gd2NCl3,2.14
mp-782011,Gd2Nb2N2O5,1.7136
mp-1201421,Gd2Nb2S7O30,0.1455
mp-1225182,Gd2NbGaO7,2.0003999999999995
mp-1224935,Gd2NbInO7,2.4145
mp-1207225,Gd2NiO4,0.09879999999999978
mp-1212708,Gd2NiPtO6,1.7092999999999998
mp-772787,Gd2P4O13,3.297
mp-676498,Gd2PbS4,1.2363999999999995
mp-15922,Gd2ReO5,0.7654999999999998
mp-561849,Gd2S2O,1.8184
mp-1202688,Gd2S3O20,1.0720999999999998
mp-865182,Gd2SCl4,1.7004
mp-4805,Gd2SO2,2.039
mp-1224704,Gd2ScNbO7,2.2763
mp-669388,Gd2Se2O,1.3044000000000002
mp-13973,Gd2SeO2,1.3184999999999998
mp-1194754,Gd2SeOF2,1.3483999999999998
mp-13775,Gd2Si2O7,3.2104
mp-1205044,Gd2Si4CN6,2.011
mp-542831,Gd2SiO5,3.0252000000000003
mp-16788,Gd2SiTeO4,0.5892999999999997
mp-17064,Gd2Sn2O7,2.6234
mp-561122,Gd2SnS5,0.061200000000000365
mp-542515,Gd2Te4O11,2.8974
mp-16035,Gd2TeO2,1.0708000000000002
mp-17583,Gd2TeO6,2.6902000000000004
mp-5302,Gd2Ti2O7,2.6375999999999995
mp-557626,Gd2TiO5,2.9502
mp-1105276,Gd2TiZnO6,2.7541
mp-773164,Gd2V2O7,0.9804999999999996
mp-1225231,Gd2VFeO6,1.5122000000000004
mp-773185,Gd2W2O9,2.8302
mp-771541,Gd2W4O15,3.4916
mp-565757,Gd2WO6,3.1124
mp-1212755,Gd2ZnPtO6,1.6060000000000003
mp-1190458,Gd2ZnTe2(SO7)2,2.7953
mp-757233,Gd2Zr2O7,2.7790000000000004
mp-1200071,Gd2ZrSe5,0.6168000000000005
mp-14133,Gd3Al5O12,3.4625
mp-1192219,Gd3AlZnS7,1.3514
mp-768273,Gd3As5O12,2.386
mp-768254,Gd3AsO7,2.2214
mp-10559,Gd3AuO6,1.5063
mp-669375,Gd3B2(O2F)3,2.8116000000000003
mp-565583,Gd3BWO9,3.1839000000000004
mp-1191816,Gd3BeCrS7,0.5606
mp-680293,Gd3Co29(Si2B5)2,0.010600000000000165
mp-1189617,Gd3Cu3Sb4,0.3048000000000002
mp-573114,Gd3CuGeS7,1.0609000000000002
mp-568189,Gd3CuGeSe7,0.7081
mp-1191406,Gd3CuSiS7,1.2146999999999997
mp-641576,Gd3CuSiSe7,0.8652000000000002
mp-556782,Gd3CuSnS7,1.0153
mp-568811,Gd3CuSnSe7,0.7255000000000003
mp-1189831,Gd3FeO6,2.5241
mp-2921,Gd3Ga5O12,3.0282
mp-3594,Gd3GaO6,2.9661
mp-20501,Gd3InC,0.0009000000000001228
mp-756715,Gd3InO6,2.8589
mp-1200532,Gd3InS6,0.8866000000000005
mp-1213450,Gd3Lu2(GaO4)3,3.0282
mp-1190789,Gd3MgAlS7,1.3483999999999998
mp-1191013,Gd3MnAlS7,0.24239999999999995
mp-1191699,Gd3MnGaS7,0.3884999999999996
mp-1204194,Gd3MoO7,1.7532000000000003
mp-651160,Gd3NCl6,1.9680000000000002
mp-752432,Gd3NbO7,2.3856
mp-510057,Gd3NbS3O4,1.7660999999999998
mp-22077,Gd3Pd2,0.018299999999999983
mp-30137,Gd3ReO8,1.622
mp-683963,Gd3RuO7,0.15420000000000034
mp-647096,Gd3S3N,1.0476
mp-1224717,Gd3SOF5,1.9296
mp-1188599,Gd3Sb4Au3,0.4530000000000003
mp-505046,Gd3Sb5O12,2.7146000000000003
mp-1104777,Gd3SbO3,0.07899999999999974
mp-1191117,Gd3SbO7,2.4758
mp-555835,Gd3Sc2(GaO4)3,0.4925000000000002
mp-1213017,Gd3Sc2Al3O12,3.1758
mp-1213337,Gd3ScS6,0.3879000000000001
mp-1104036,Gd3Se2NO,1.6596000000000002
mp-1193201,Gd3Se3N,0.9187
mp-559447,Gd3Se4O12F,2.7816
mp-1198316,Gd3Si2BO10,2.7595
mp-1224744,Gd3Si2BrO8,2.1819
mp-560513,Gd3Si2Cl5O6,2.531
mp-1194050,Gd3Si2S8Br,1.269
mp-779424,Gd3TaO7,2.7834000000000003
mp-1212679,Gd3W(ClO2)3,2.5584
mp-1225082,Gd3Y(FeO3)4,0.4000999999999997
mp-766237,Gd3Y13O24,3.4495
mp-752434,Gd3YO6,3.1017
mp-1224710,Gd3YV4O16,2.9688
mp-1196638,Gd4(GeS4)3,1.129
mp-1199792,Gd4(SiS4)3,1.1924
mp-1178271,Gd4As2O9,2.0723
mp-623092,Gd4Au2O9,1.8749
mp-1203805,Gd4B4O11F2,2.9465000000000003
mp-1201615,Gd4BClO7,3.0154
mp-1178283,Gd4Ga2O9,3.1305999999999994
mp-1200081,Gd4Ge3O13,0.021499999999999853
mp-1200768,Gd4Mo4O11,0.3803999999999999
mp-704325,Gd4Mo7O27,2.8488
mp-605707,Gd4P6H16O23,2.7563
mp-1213473,Gd4PdO7,1.04
mp-1204595,Gd4Si2S3O7,1.2150999999999996
mp-558965,Gd4Si2Se3O7,0.9640999999999992
mp-554519,Gd4Ti(SeO)4,0.6332
mp-676156,Gd5AgS8,1.1215000000000002
mp-685977,Gd5AgSe8,0.9083
mp-1199531,Gd5C2Cl9,0.5569000000000002
mp-1225149,Gd5Si2BO13,2.6509
mp-752459,Gd5Y3O12,3.0149
mp-637600,Gd6CoBr10,0.017500000000000068
mp-1205464,Gd6CoCl10,0.109
mp-1195215,Gd6Mo10O39,2.6502
mp-1224731,Gd6S3(OF4)2,1.4777999999999998
mp-769780,Gd6WO12,2.7825
mp-685713,Gd7Ti8O26,0.3102999999999998
mp-1224905,Gd7Y5Nb4O28,2.4732
mp-676108,Gd8Zr7O26,2.1885
mp-558152,GdAg(PO3)4,2.3239
mp-1212867,GdAg(WO4)2,0.4934000000000001
mp-19783,GdAg2,0.00029999999999974486
mp-1200242,GdAgS2,0.9583
mp-1097028,GdAgSe2,0.9639000000000002
mp-19923,GdAl2,0.05950000000000076
mp-560801,GdAl3(BO3)4,2.8769
mp-21706,GdAl3(PbO4)2,2.9479
mp-22505,GdAl3Pd2,0.02160000000000029
mp-22711,GdAl7Au3,0.06319999999999926
mp-1212574,GdAlGe2O7,3.0838
mp-5223,GdAlO3,3.2382
mp-20058,GdAlPd,0.0058000000000006935
mp-753953,GdAsO3,2.1317
mp-776200,GdAsO4,3.4222
mp-1194925,GdB(SO4)3,2.6494
mp-19756,GdB2Rh2C,0.0057999999999998044
mp-22117,GdB2Rh3,0.03330000000000055
mp-22335,GdB2Ru3,0.03310000000000013
mp-1224628,GdBO3,2.6507000000000005
mp-20967,GdBPd3,0.023800000000000487
mp-19840,GdBRh3,0.03139999999999965
mp-1195691,GdBe2B5O11,2.9868
mp-562809,GdBi2BrO4,0.9891
mp-549695,GdBi2ClO4,0.8529
mp-628631,GdBi2IO4,1.3080999999999996
mp-27182,GdBr3,2.2041
mp-29797,GdBrO,2.8895
mp-1199796,GdCO4,0.01839999999999997
mp-22138,GdCd3,0.0043000000000001926
mp-21458,GdCdCu,0.006800000000000139
mp-23265,GdCl3,2.0054
mp-23050,GdClO,2.9892000000000003
mp-1079326,GdClO2,0.020299999999999985
mp-21252,GdCo3B2,0.028999999999999918
mp-21230,GdCoB4,0.025599999999999845
mp-20345,GdCoC,0.03310000000000013
mp-1212488,GdCrGeO5,2.3178
mp-19598,GdCrO3,2.4136
mp-24916,GdCrO4,0.6165
mp-585683,GdCu(MoO4)2,1.6261
mp-541420,GdCu(WO4)2,1.0480000000000005
mp-20188,GdCuAs2,0.04320000000000057
mp-510471,GdCuS2,0.9901
mp-20502,GdCuSb2,0.0566999999999993
mp-510528,GdCuSe2,0.7496
mp-554419,GdCuSe2ClO6,0.6263000000000001
mp-505262,GdCuSeO,1.1960999999999995
mp-766236,GdErO3,3.234
mp-972965,GdF3,2.865
mp-20089,GdFe2,0.010899999999999466
mp-1224629,GdFe2BiO6,0.3414999999999999
mp-585750,GdFe3(BO3)4,2.2612
mp-1225148,GdFe4(BiO4)3,1.6100000000000003
mp-600862,GdFeO3,1.6787999999999998
mp-1212375,GdGa3(BO3)4,2.6363
mp-651847,GdGaGe2O7,2.8223
mp-18656,GdGaO3,3.3962000000000003
mp-1203437,GdH(SeO4)2,2.8701000000000003
mp-23989,GdH12(ClO2)3,3.1176
mp-735051,GdH18(IO3)3,2.0964
mp-707824,GdH18C3S3(O2F)9,3.6147
mp-1200033,GdH2C2SNO9,0.5607
mp-1101836,GdH2ClO2,2.9676
mp-1197189,GdH2I3O10,3.1428000000000003
mp-559223,GdH6C4NO9,3.0599000000000003
mp-605688,GdH6C6Cl3(O3F2)3,3.1337
mp-559733,GdH7C2SO8,2.8774
mp-567268,GdH8C10N(O2F3)4,3.0036
mp-1190565,GdH9C5(NO4)2,3.0433000000000003
mp-625147,GdHO2,3.071400000000001
mp-1207092,GdHSe,0.5607000000000002
mp-11422,GdHg,0.00990000000000002
mp-1212616,GdI3O11,0.4665999999999999
mp-752520,GdIO,0.2523
mp-1212862,GdIn2Cl5,1.1271
mp-20444,GdIn2Rh,0.0054999999999996154
mp-1077293,GdInCu4,0.07370000000000054
mp-1212640,GdInO3,1.7627000000000002
mp-20224,GdInPd,0.007099999999999441
mp-22656,GdInPt2,0.010899999999999466
mp-510400,GdIr3,0.009000000000000341
mp-756424,GdLuO3,3.1346
mp-556905,GdMg(BO2)5,3.0152
mp-20149,GdMg2Ag,0.0012999999999996348
mp-20332,GdMgPd,0.0026000000000001573
mp-22028,GdMgPt,0.0064000000000001825
mp-703682,GdMn2O5,1.1982999999999997
mp-1191402,GdMnGe2O7,1.2807999999999995
mp-1193134,GdMoBrO4,1.5235
mp-565335,GdMoClO4,2.4125
mp-566113,GdMoO4F,3.3710000000000004
mp-1212605,GdNb5Ag2O15,1.9516
mp-19721,GdNbO4,3.1849000000000003
mp-541466,GdNi(BO2)5,3.1216
mp-20728,GdNi2B2C,0.007600000000000051
mp-21305,GdNi5,0.038399999999999324
mp-567422,GdNiBi,0.33009999999999984
mp-569197,GdNiSb,0.3894000000000002
mp-753721,GdOF,3.3035
mp-541218,GdP2H9O10,2.8792
mp-601302,GdP2H9O11,3.1191
mp-560412,GdP4H4NO12,3.4734
mp-680742,GdP5,0.19890000000000008
mp-558487,GdP5O14,3.1654
mp-556657,GdPH5CO7,3.1807
mp-1103324,GdPO4,3.2668
mp-1191365,GdPS,0.30820000000000025
mp-1196177,GdPS4,1.3141000000000005
mp-37014,GdPaO4,2.3198
mp-11427,GdPd,0.004499999999999282
mp-11428,GdPt,0.009400000000000295
mp-1422,GdPt2,0.019000000000000128
mp-20272,GdPt3,0.04499999999999993
mp-17500,GdPtF7,2.3379000000000003
mp-20084,GdRh2,0.027899999999999814
mp-1095479,GdS2,0.42790000000000017
mp-1212521,GdSBr,1.4409999999999998
mp-558122,GdSClO4,1.9163
mp-3799,GdSF,1.0983999999999998
mp-556135,GdSI,1.5047
mp-16801,GdSO4F,3.178
mp-1203539,GdSbMo2O9,2.7068000000000003
mp-11839,GdSbPt,0.3258000000000001
mp-5690,GdScO3,3.1418000000000004
mp-1213513,GdSe2NO11,0.03269999999999995
mp-556551,GdSeClO3,2.9930000000000003
mp-19919,GdSn3,0.04779999999999962
mp-20514,GdSnAu,0.037199999999999456
mp-15059,GdSnF7,4.4455
mp-770998,GdTa3O9,2.8865
mp-770124,GdTa7O19,2.7025
mp-4875,GdTaO4,3.2902
mp-550437,GdTe2ClO5,0.3643000000000001
mp-695048,GdTi2CdO6F,1.3352000000000004
mp-39684,GdTiCdSbO7,2.3292
mp-1212518,GdTiClO3,2.9960000000000004
mp-20869,GdTiGe,0.05289999999999928
mp-1224654,GdTiNbBi2O9,2.6587
mp-1212617,GdTl(MoO4)2,2.9426
mp-1212540,GdTl(WO4)2,3.0177
mp-20503,GdTl3,0.00399999999999956
mp-30692,GdTlPd,0.016300000000000203
mp-557655,GdTlS2,1.6705
mp-569393,GdTlSe2,1.4039
mp-1065609,GdTlTe2,0.9397000000000002
mp-756030,GdTmO3,3.1590000000000003
mp-1203163,GdV(SeO4)2,1.9441
mp-25140,GdVO4,2.9685
mp-1192808,GdWBrO4,1.646
mp-568740,GdWClO4,2.5147
mp-1212606,GdWO5,0.0421
mp-1224655,GdY(FeO3)2,1.4789999999999996
mp-1224627,GdY(WO4)3,3.2751
mp-1224573,GdY3(FeO3)4,0.5201000000000002
mp-1224509,GdY3V4O16,2.9599
mp-1224479,GdYScSbO7,2.7798
mp-1224411,GdYV2O8,2.9726
mp-1078542,GdZnAsO,0.6312000000000002
mp-545506,GdZnPO,0.5424999999999995
mp-530695,GdZr3F15,4.4567
mp-1213641,GdZr6(PO4)9,1.7071
mp-23352,Ge(Bi3O5)4,2.3733000000000004
mp-27948,Ge(BiTe2)2,0.8887
mp-27218,Ge(BrF5)2,2.9044
mp-1197268,Ge(C6F5)4,0.7672
mp-1181280,Ge(PO2)3,2.5371
mp-560370,Ge(PbS2)2,2.0309
mp-28291,Ge(SF6)2,4.9563
mp-1224378,Ge(SbTe)4,0.0964999999999998
mp-1224350,Ge(SbTe2)2,0.44980000000000064
mp-1205339,Ge(SeO3)2,3.6692
mp-14790,Ge(Te2As)2,0.3594999999999997
mp-554142,Ge(TeO3)2,3.8765
mp-1224632,Ge(TePd4)2,0.08560000000000034
mp-1212561,Ge19(AsBr)4,1.4361000000000002
mp-27626,Ge19(AsI)4,1.0131
mp-27625,Ge19(PBr)4,1.4055
mp-1212555,Ge19(PCl)4,1.6622999999999997
mp-23420,Ge19(PI)4,1.0766000000000004
mp-1212667,Ge19(SbBr)4,1.2943000000000002
mp-1212622,Ge19(SbI)4,1.1349999999999998
mp-768524,Ge2As2O7,3.2054
mp-1206551,Ge2Bi2Te5,0.5821000000000005
mp-1181355,Ge2Br7N3,0.4654999999999998
mp-541145,Ge2C2(SF2)3,3.3624
mp-541146,Ge2C2(SeF2)3,2.4208
mp-1043238,Ge2MoO6,1.6082
mp-4187,Ge2N2O,2.6029
mp-982048,Ge2O3,0.6884000000000001
mp-1224906,Ge2Pb5SO12,3.013
mp-1201091,Ge2RuC4(Cl3O2)2,3.0781
mp-540792,Ge2S3Br2,2.4276
mp-27928,Ge2S3I2,2.2528
mp-1224376,Ge2SeS,1.1316000000000002
mp-14791,Ge2Te5As2,0.4092000000000002
mp-1224336,Ge2TeSe,0.3376000000000001
mp-1043268,Ge2WO6,2.2472000000000003
mp-23560,Ge3(BiO3)4,3.4881
mvc-4408,Ge3(MoO6)2,2.1638
mp-1201722,Ge3(SbO3)4,3.3567
mp-1212511,Ge3(SbTe3)2,0.11219999999999963
mp-541312,Ge3(Te3As)2,0.3445999999999998
mvc-4222,Ge3(TeO6)2,2.0875000000000004
mvc-4401,Ge3(WO6)2,2.8925
mp-569600,Ge3As4,0.15479999999999985
mp-29218,Ge3Bi2O9,2.9644
mp-29688,Ge3Cl8,3.2078
mp-1190647,Ge3F8,4.3037
mp-975924,Ge3Ir2Se3,0.5894000000000004
mp-971694,Ge3N2,0.37509999999999977
mp-672289,Ge3N4,2.064
mp-1212692,Ge3NO6,2.8853
mp-16610,Ge3Os2,0.7418000000000005
mp-680143,Ge3Pb11O17,2.1413
mp-1181737,Ge3Pb3O10,0.6558000000000002
mp-557340,Ge3Pb5O11,2.5011
mp-29217,Ge3PbO7,2.6511
mp-1199965,Ge3Rh2S3,0.6159000000000008
mp-976401,Ge3Rh2Se3,0.30880000000000063
mp-21945,Ge3Ru2,0.3814000000000002
mp-17708,Ge3Sb2O9,3.036
mp-1224326,Ge3Te2Se,0.3482000000000003
mp-1224516,Ge3Te3Ir2,0.0674999999999999
mp-559373,Ge4PbO9,3.4876000000000005
mp-680333,Ge4Se9,1.2221
mp-568730,Ge4Te7As2,0.2182000000000004
mp-28487,Ge5(Te4As)2,0.2199
mp-27342,Ge5F12,4.3696
mp-541844,Ge5Ir4,0.12790000000000035
mp-18049,Ge5P6O25,3.5718
mp-1224356,Ge5Te4Se,0.2858999999999998
mp-675004,Ge6Bi7O22,0.6659999999999999
mp-1201671,Ge6C4NO13,0.0013000000000000787
mp-1237991,Ge7(H2O11)2,0.4586
mp-29500,Ge7F16,4.3804
mp-1181734,Ge7H18O23,3.1634
mp-857343,Ge7H8N2O15,2.7924
mp-505780,Ge7Ir3,0.13430000000000053
mp-1196708,Ge7N2O15,1.2702
mp-29249,GeAsSe,1.4624
mp-23446,GeBi2O5,2.3222
mp-29644,GeBi4Te7,0.5721000000000007
mp-1204733,GeBiH8C2S4N,2.4689
mp-1195356,GeBiNO7,2.1622
mp-541610,GeBr2,2.597
mp-571246,GeBr4,2.9647
mp-1002164,GeC,1.6502
mp-1195014,GeC4(BrF5)2,4.1214
mp-30086,GeCl4,4.1254
mp-989197,GeClF,2.5328000000000004
mp-557432,GeClO2F5,1.7275
mp-7595,GeF2,4.0597
mp-9816,GeF4,5.5005000000000015
mp-695936,GeH10(N2F3)2,4.8966
mp-1205224,GeH10Se3N4,1.5458
mp-707881,GeH12(NF2)4,2.4704
mp-28369,GeH3Cl,4.7492
mp-1205379,GeH4,5.7749
mp-995236,GeH6CI3N,0.9327
mp-703461,GeH8N2OF6,5.6075
mp-23266,GeI4,1.996
mp-494,GeMo3,0.029700000000000063
mp-1224404,GeMoAs,0.010699999999999932
mp-1196527,GeN3F7,2.1121
mp-1224374,GeNCl3,0.504
mp-648843,GeOs2C8(ClO2)4,2.0246
mp-28883,GeP2O7,3.8284
mp-1189190,GePClO2,2.7344
mp-1197913,GePb(S2O7)3,3.9616
mp-1198509,GePb2(SeO3)4,3.3317
mp-559144,GePb3O5,2.2715
mp-583345,GePb5O7,2.168
mp-554699,GePbO3,2.7131
mp-624190,GePbS3,1.7578999999999998
mp-541785,GePdS3,1.3072
mp-1101755,GePtS,1.1038000000000006
mp-20817,GePtSe,0.6596000000000002
mp-1025397,GeRu,0.1852999999999998
mp-1199720,GeSb2H16C4(S3N)2,2.4921
mp-29641,GeSb4Te7,0.2689000000000004
mp-938,GeTe,0.5965000000000007
mp-1224368,GeTe(PbSe)2,0.5487000000000002
mp-1224318,GeTe2Pb,0.8598999999999997
mp-1224448,GeTe4Pb3,1.0620999999999992
mp-1224514,GeTe5Pb4,0.6671000000000005
mp-8645,GeTe7As4,0.4128999999999996
mp-1224373,GeTePt,0.2270000000000003
mp-607818,GeTeRh,0.2549999999999999
mp-704542,GeW2C10(BrO5)2,2.1698
mp-770711,GeWO4,1.0688
mp-556130,GeXeF10,2.3433
mp-976247,H(C3N2)4,0.7273999999999994
mp-23680,H(CO)2,2.8764
mp-690112,H(WO3)2,0.488
mp-1224441,H(WO3)4,0.5464
mp-1212613,H10C2N12O5,2.9404000000000003
mp-697408,H10C2N2O5,3.4042
mp-567221,H10C3IN,4.3149
mp-554568,H10C3NClO,5.3104000000000005
mp-560498,H10C3NClO4,5.6241
mp-558354,H10C3S3N,1.7681000000000002
mp-708184,H10C5S2N2(O2F3)2,5.8112
mp-600217,H10C5SeS2BrN3,2.3989000000000003
mp-600205,H10C5SeS2N3Cl,2.5227
mp-1213275,H10PdC2S2(N4O3)2,2.2372
mp-604702,H10PtC(N4O)2,2.0724
mp-707020,H10S(NO)4,5.1317
mp-706982,H10S(NO2)2,4.8521
mp-24118,H10SO8,5.507999999999999
mp-774848,H10SeO8,3.9706
mp-560961,H11C10NO8,2.7752
mp-560323,H11C4NO10,3.4288
mp-1224477,H11I(NO3)2,2.5187
mp-28125,H11NF8,7.2099
mp-32854,H11O8,0.9497999999999998
mp-850378,H11S2N3O7,4.922
mp-697715,H12AuC4N,3.0964
mp-1194821,H12C2S(NO2)2,4.9552999999999985
mp-554928,H12C3NF3,7.2752
mp-722329,H12C4IN,4.1779
mp-1195695,H12C4IN(OF)2,4.5611
mp-554527,H12C4INO3,3.9587
mp-1225208,H12C4N2O9,3.2263
mp-24767,H12C4NClO4,5.4665
mp-1224979,H12C4S2BrNO,3.9626
mp-677337,H12C4S3(N3Cl2)2,0.09450000000000004
mp-1195839,H12C4Se(NO)2,3.4807
mp-1204113,H12C4Se3Br6N,1.1803
mp-554659,H12C5N2O,4.6195
mp-1196283,H12C71F4,1.1884
mp-720382,H12Cl2O13,5.255
mp-738695,H12OsC4N(OF)3,2.6447000000000003
mp-1203119,H12OsC4NO4F,2.4468
mp-24461,H12OsN5Cl3O,2.3888000000000003
mp-1197750,H12OsSN4O7,0.7903
mp-1120805,H12PbC2(I3N)2,0.2103
mp-557822,H12PbC4S4(NO4)2,4.6244999999999985
mp-1212614,H12PbN3Cl5,4.4611
mp-721713,H12Pd(I2N)4,1.2455999999999998
mp-557991,H12Pd(N5O4)2,1.9444
mp-1198297,H12PdC2(N3Cl2)2,1.732
mp-1212673,H12PdC4(NO5)2,2.1999
mp-850513,H12PtC6(N3O4)2,1.7757
mp-722864,H12PtN6(ClO3)2,2.1975
mp-555813,H12RhC8NO6,1.0661999999999998
mp-698381,H12RuC4S2N2Cl2O5,2.0347
mp-773113,H12RuSN4(ClO)2,1.9291
mp-570642,H12W3C4NCl9,0.09089999999999998
mp-601871,H12W3C4S2Cl9O2,0.008500000000000063
mp-1198207,H12WC2(S2N)2,2.244
mp-743584,H12WN3(OF)3,3.6572
mp-745199,H12WN3O3F5,3.0708
mp-605048,H13(C5N)2,3.0987
mp-1238661,H13C2Cl2O8F,0.09289999999999976
mp-708997,H13C3NF4,7.284
mp-554840,H13C4NF2,6.5296
mp-720861,H13ClO6,4.9350000000000005
mp-1203926,H13RuC6SN4O8F9,1.9426
mp-1196664,H13RuN5(ClO)2,2.3878
mp-541932,H13S2N3O8,5.0308
mp-1225464,H13Se2N3O8,3.4114
mp-1202436,H14C3NCl5,5.3340999999999985
mp-561300,H14C3NF5,7.3363
mp-601774,H14C4NF3,7.1156000000000015
mp-556451,H14C5(NO)2,4.3708
mp-557333,H14C5(SN)2,2.6468
mp-1200704,H14C5SN3ClO2,2.8692
mp-561074,H14RhC6NClO4,1.7589
mp-722271,H14RuS2(N2O3)2,2.4349
mp-1238354,H14Se2N3O8,0.4105000000000001
mp-1203988,H15PdRuN9O11,1.9486
mp-706632,H15RhBr3N5,2.6607
mp-1238563,H16AuC12S2N3O4,2.3457
mp-705526,H16AuC6S2N4ClO4,3.3875
mp-558970,H16C3NF7,7.3689
mp-1197449,H16OsC4S4Br8N8O3,0.04620000000000002
mp-766411,H16PdC4S4(N4Cl)2,2.0412
mp-1212583,H16PdC4S4(N5O3)2,1.653
mp-684919,H16PtC4(NCl3)2,2.1643
mp-866658,H16RhN5(Cl2O)3,1.6753999999999998
mp-721049,H16RhN5(ClO4)2,3.6608
mp-758573,H16Ru3C6(Cl3O7)2,0.5832999999999999
mp-1201498,H16S(N3O5)2,3.3189
mp-1182775,H17RuN6Cl3O2,1.5102
mp-1212573,H17RuN6ClO3,1.8753
mp-1195210,H18IrC6S3(ClO)3,2.5559
mp-559034,H18PbC6S4N2O9,4.9717
mp-1194707,H18RhC4N7O8,2.7044
mp-759409,H18RuC6(SCl)3,0.3309
mp-706304,H18RuC6S3N3ClO3,2.5151
mp-720397,H18RuN5(ClO)2,1.2495
mp-31373,H18SO12,5.2189999999999985
mp-1197142,H18Se3(NO3)4,3.4568
mp-1203177,H18WC6,2.7190000000000003
mp-1203308,H19C6N7O4,4.784000000000002
mp-766262,H20C3(N2O5)2,4.7037
mp-709027,H20RuC6NO14,0.6942
mp-1224778,H20SN8O13,3.013
mp-759161,H21C6N2Cl3,5.3657
mp-1200273,H21C7S3N3O8,3.5184
mp-709068,H21OsC9NO7,2.2033
mp-707910,H22C10O3,5.284
mp-698362,H22IrC3(N3O4)2,2.7618
mp-1237358,H22Pt2C6SO6,0.0656000000000001
mp-600156,H22RhC3(N3O4)2,3.2578
mp-695295,H22RuN7(ClO2)4,0.8401
mp-1204531,H23RuS2N5ClO12,0.026600000000000068
mp-1201227,H24AuC16S2N3O4,2.2925
mp-707249,H24C8S(NO2)2,3.7835
mp-677203,H24C8Se(NO2)2,4.0885
mp-555945,H24OsC8(NF3)2,0.17430000000000012
mp-707284,H24PdC8(NCl2)2,1.8282
mp-698446,H24PtC8(NF3)2,2.8681
mp-738597,H24RuC7S3NCl3O4,2.9703
mp-605665,H24RuC8(S2Cl)2,2.3671
mp-1199286,H25C8IN2(OF2)2,4.607
mp-707822,H26Os2N12Cl4O9,2.4036
mp-1195183,H26Pd4Pt(C11O8)2,1.7948
mp-1195390,H26Pd5(C11O8)2,1.9202
mp-1196498,H27C9S2N3O5,3.7733
mp-849764,H28Pt2Br5N9O2,2.6863
mp-850221,H28RuS2(N3O5)2,2.3276000000000003
mp-1196105,H29Pd3S3N9O10,2.0961
mp-985782,H2C,6.475
mp-24332,H2C(NO)2,2.2824
mp-707727,H2C2N2O,3.9224
mp-1096982,H2C2S,0.18400000000000016
mp-723065,H2C2S3N2(OF)6,5.8983
mp-995217,H2C3,1.9449
mp-698476,H2C3(N2Cl)2,3.6838
mp-1212515,H2C3N2O3,2.7026
mp-1212621,H2C3NClOF4,4.3296
mp-559232,H2C3O4,3.4866
mp-1224461,H2CBrCl,4.7250999999999985
mp-30094,H2CN2,4.709899999999998
mp-625082,H2CO,0.02280000000000001
mp-558412,H2CO2,4.8418
mp-1001080,H2CO3,5.8870000000000005
mp-709098,H2CS3,2.0181
mp-995221,H2CSO4,5.8997
mp-28349,H2NO2,3.3779
mp-697111,H2O,5.5175
mp-28015,H2O2,4.511
mp-600347,H2Os3(CO)10,1.7320000000000002
mp-1203196,H2Os3C8(SO4)2,2.7289999999999996
mp-740758,H2Os4Pt(CO)15,1.8919