task_id,composition,band_gap
mp-1047190,Mg2TiWO6,1.6436000000000002
mp-19704,Mg2Tl2(MoO4)3,3.8757
mvc-13578,Mg2V2(SiO4)3,1.7748000000000004
mp-1222196,Mg2V2CoO8,2.1881000000000004
mvc-3950,Mg2V2O5,1.2300000000000004
mp-32500,Mg2V2O7,2.7138
mp-1042707,Mg2V3O8,1.3518
mp-1223612,Mg2V6Cu4O21,0.28689999999999993
mp-25139,Mg2VBiO6,3.1885000000000003
mvc-5771,Mg2VIrO6,0.4298000000000002
mp-1029368,Mg2VN3,1.9883
mp-1232300,Mg2VP3O11,2.2251000000000003
mvc-14653,Mg2VSbO6,1.0606
mp-1047149,Mg2VWO6,2.0007999999999995
mvc-4003,Mg2W2O5,1.2015999999999996
mp-1096604,Mg2ZnCd,0.03510000000000013
mp-1096303,Mg2ZnGa,0.06150000000000011
mp-1097317,Mg2ZnHg,0.24360000000000026
mp-1097273,Mg2ZnIr,0.08139999999999993
mp-1222123,Mg2ZnO3,2.9016
mp-675716,Mg2Zr5O12,3.8874
mp-1201475,Mg3(Al9Mo)2,0.05850000000000044
mp-1205144,Mg3(Al9W)2,0.017100000000000115
mp-756919,Mg3(AsO4)2,3.6575
mp-5005,Mg3(BO3)2,5.143
mp-30243,Mg3(HO2)2,3.7709
mp-37315,Mg3(HO3)2,2.2218
mp-14396,Mg3(PO4)2,5.106400000000002
mp-1201747,Mg3(SO5)2,0.8216
mp-1199206,Mg3(SO6)2,0.0192
mp-1200846,Mg3(SiO3)4,0.04479999999999995
mp-1037955,Mg30AlBO32,2.466500000000001
mp-1038205,Mg30AlBiO32,0.5358999999999998
mp-1038189,Mg30AlCO32,1.8867999999999991
mp-1038344,Mg30AlCoO32,1.5146000000000006
mp-1038308,Mg30AlCuO32,1.4857000000000005
mp-1038379,Mg30AlFeO32,1.0363999999999995
mp-1038314,Mg30AlNiO32,2.0789999999999993
mp-1038247,Mg30AlSiO32,0.5449999999999999
mp-1038258,Mg30AlSnO32,0.053500000000001435
mp-1038339,Mg30AlVO32,0.4199999999999999
mp-1038353,Mg30AlZnO32,0.10770000000000124
mp-1038482,Mg30BCO32,1.8518000000000008
mp-1038436,Mg30BSbO32,1.5206999999999995
mp-1038510,Mg30BWO32,2.1806
mp-1098202,Mg30BiBO32,1.8729
mp-1038425,Mg30BiCO32,0.6760000000000002
mp-1038496,Mg30CdCO32,2.6857000000000006
mp-1036927,Mg30CdCoO32,2.7959000000000005
mp-1037248,Mg30CdCuO32,0.28200000000000003
mp-1037391,Mg30CdFeO32,2.8197
mp-1036825,Mg30CdNiO32,4.0825
mp-1039856,Mg30CdSiO32,1.5650000000000004
mp-1095703,Mg30CdSnO32,1.6192000000000002
mp-1036995,Mg30CoBO32,1.7368000000000006
mp-1036911,Mg30CoBiO32,1.3708
mp-1036880,Mg30CoCO32,2.2078
mp-1037511,Mg30CoCuO32,0.1578999999999997
mp-1037189,Mg30CoNiO32,2.7645
mp-1037157,Mg30CoSiO32,0.1164000000000005
mp-1037258,Mg30CoSnO32,0.7115
mp-1038513,Mg30CrBO32,0.17879999999999985
mp-1038542,Mg30CrCO32,1.2755999999999998
mp-1038570,Mg30CrCdO32,1.6689999999999996
mp-1036988,Mg30CrCoO32,0.7733999999999996
mp-1037287,Mg30CrCuO32,0.9368999999999996
mp-1037531,Mg30CrFeO32,1.8690999999999995
mp-1037024,Mg30CrNiO32,1.7256999999999998
mp-1039875,Mg30CrSiO32,1.8414000000000008
mp-1095707,Mg30CrSnO32,1.6079
mp-1037183,Mg30CuBiO32,1.2297999999999991
mp-1037135,Mg30CuCO32,0.1642999999999999
mp-1037367,Mg30CuNiO32,2.798300000000001
mp-1037328,Mg30CuSiO32,0.3567999999999998
mp-1037360,Mg30CuSnO32,0.05290000000000017
mp-1037415,Mg30FeBiO32,0.4980000000000002
mp-1037498,Mg30FeCO32,2.3954000000000004
mp-1036993,Mg30FeCoO32,2.2034
mp-1037305,Mg30FeNiO32,3.2173
mp-1037606,Mg30FeSiO32,1.8509
mp-1036955,Mg30FeSnO32,1.8605
mp-1038427,Mg30GaBO32,2.1315999999999993
mp-1038409,Mg30MnAlO32,0.3788
mp-1098739,Mg30MnBO32,0.4504999999999999
mp-1037884,Mg30MnCO32,2.0062
mp-1037825,Mg30MnCdO32,2.6959
mp-1038287,Mg30MnCoO32,2.2467
mp-1037844,Mg30MnCrO32,1.8731000000000009
mp-1037989,Mg30MnCuO32,0.1385999999999994
mp-1037923,Mg30MnFeO32,3.2204999999999995
mp-1037821,Mg30MnNbO32,0.6293000000000006
mp-1038248,Mg30MnNiO32,3.0418000000000003
mp-1038039,Mg30MnSiO32,0.9581999999999996
mp-1038154,Mg30MnSnO32,1.8533000000000008
mp-1038167,Mg30MnVO32,1.9944000000000008
mp-1037924,Mg30MnZnO32,2.7680000000000002
mp-1038214,Mg30NbAlO32,0.12100000000000045
mp-1038575,Mg30NbCO32,0.2058
mp-1038562,Mg30NbCdO32,0.3979999999999997
mp-1038594,Mg30NbCrO32,0.4693999999999994
mp-1037239,Mg30NbCuO32,0.3394000000000004
mp-1037501,Mg30NbFeO32,0.6009000000000011
mp-1037074,Mg30NbNiO32,0.4478
mp-1039821,Mg30NbSiO32,0.9278000000000004
mp-1095702,Mg30NbSnO32,0.6916999999999991
mp-1036762,Mg30NbVO32,0.6753
mp-1037462,Mg30NbZnO32,0.5577000000000005
mp-1036845,Mg30NiBiO32,1.5705999999999989
mp-1036823,Mg30NiCO32,2.3319
mp-1036900,Mg30NiSnO32,1.5818000000000003
mp-1039876,Mg30SiBO32,0.9659000000000004
mp-1039816,Mg30SiCO32,1.164600000000001
mp-1036904,Mg30SiNiO32,0.39509999999999934
mp-1036730,Mg30SiSnO32,0.9231999999999996
mp-1038237,Mg30TiAlO32,0.3437000000000001
mp-1040308,Mg30TiBO32,0.4602000000000004
mp-1040333,Mg30TiCO32,0.2840999999999996
mp-1040321,Mg30TiCdO32,0.2469000000000001
mp-1037122,Mg30TiCoO32,0.4868000000000006
mp-1037311,Mg30TiCuO32,0.5133000000000001
mp-1037799,Mg30TiFeO32,0.19640000000000055
mp-1040364,Mg30TiNbO32,0.2586999999999993
mp-1037199,Mg30TiNiO32,0.5821000000000005
mp-1098353,Mg30TiSiO32,0.1517999999999997
mp-1036721,Mg30TiSnO32,0.2479999999999993
mp-1036755,Mg30VBiO32,0.05370000000000097
mp-1036759,Mg30VCO32,1.3147000000000002
mp-1036735,Mg30VCdO32,1.9991000000000003
mp-1037188,Mg30VCoO32,0.9867
mp-1036803,Mg30VCrO32,1.9839
mp-1037549,Mg30VCuO32,1.4814999999999996
mp-1037070,Mg30VFeO32,2.0005000000000006
mp-1037092,Mg30VNiO32,2.0633999999999992
mp-1036736,Mg30VSiO32,2.0509999999999997
mp-1036763,Mg30VSnO32,1.9945000000000004
mp-1037352,Mg30VZnO32,1.9234
mp-1037463,Mg30ZnCO32,2.9424
mp-1037464,Mg30ZnCdO32,3.993
mp-1037497,Mg30ZnCoO32,2.5660000000000003
mp-1037573,Mg30ZnCrO32,1.9254000000000009
mp-1037204,Mg30ZnCuO32,2.8733999999999997
mp-1037212,Mg30ZnFeO32,3.091
mp-1037547,Mg30ZnNiO32,4.2665
mp-1037343,Mg30ZnSiO32,1.9480999999999995
mp-1037359,Mg30ZnSnO32,2.191300000000001
mvc-4236,Mg3Ag2(GeO4)3,0.4306999999999999
mp-1222235,Mg3Al12FeSi4(BO9)4,3.6429
mp-39003,Mg3Al14O24,4.3115999999999985
mp-6073,Mg3Al2(SiO4)3,4.9394
mp-1222670,Mg3Al7(Si2O11)2,0.2054999999999998
mp-1222261,Mg3Al8Fe(Si5O18)2,3.8677
mp-699146,Mg3AlFe(SiO4)3,2.4258999999999995
mp-1206514,Mg3AsN,1.3360000000000003
mp-554719,Mg3B(HO2)3,3.4202000000000004
mp-554542,Mg3B(OF)3,5.4165
mp-733898,Mg3B11(H3O8)3,3.8637
mp-1196889,Mg3B11O24,0.009499999999999998
mp-1181947,Mg3B2H9SO13F,4.2645
mp-707392,Mg3B2P2(H9O10)2,5.0287
mp-1210659,Mg3B7BrO13,5.9442
mp-23087,Mg3B7ClO13,5.9272
mp-1222264,Mg3BH2O5F,3.7813
mp-28955,Mg3BN3,1.3798
mp-17313,Mg3BeAl8O16,5.1747
mvc-15998,Mg3Bi2O7,0.11830000000000053
mp-1222237,Mg3C2O7,3.9108
mp-1099255,Mg3CdO4,1.3725000000000005
mvc-4438,Mg3Co2(GeO4)3,2.4464999999999995
mvc-4870,Mg3Co2(Si2O7)2,1.3757
mvc-3872,Mg3Co2(SiO4)3,2.5062999999999995
mvc-3604,Mg3Co2O7,0.4802999999999997
mp-1041473,Mg3Co3(AsO4)4,2.0777
mvc-4503,Mg3Cr2(GeO4)3,3.4139000000000004
mvc-4592,Mg3Cr2(Si2O7)2,2.2871
mp-19581,Mg3Cr2(SiO4)3,3.4551
mp-1047507,Mg3Cr3(AsO4)4,1.4471000000000005
mvc-7826,Mg3Cr6(FeO6)4,0.004599999999999938
mp-1222216,Mg3Cr8FeO16,1.9982
mvc-4251,Mg3Cu2(GeO4)3,0.3863000000000003
mvc-4553,Mg3Cu2(Si2O7)2,0.2986
mvc-3609,Mg3Cu2(SiO4)3,0.4256000000000002
mvc-5986,Mg3Cu3(AsO4)4,0.5909
mp-766403,Mg3Cu9(SiO3)16,0.14360000000000014
mp-1222201,Mg3Fe(SiO4)2,3.2669
mvc-4828,Mg3Fe2(GeO4)3,2.6938
mvc-5085,Mg3Fe2(Si2O7)2,2.0401
mp-19574,Mg3Fe2(SiO4)3,2.7117
mp-765880,Mg3Fe2O5,2.2009
mp-1041600,Mg3Fe3(AsO4)4,2.023
mp-1222215,Mg3Fe3(PO4)4,3.5681
mp-1042940,Mg3Fe4(MoO4)6,1.1707
mp-1042658,Mg3Fe4(SbO4)6,1.7163
mp-1042815,Mg3Fe4(WO4)6,1.6917999999999995
mp-773982,Mg3Fe4O7,1.7749000000000006
mvc-4265,Mg3Ge3(BiO6)2,2.6657
mvc-4434,Mg3Ge3(MoO6)2,2.2511000000000005
mvc-4249,Mg3Ge3(SbO6)2,2.1558
mvc-4445,Mg3Ge3(WO6)2,1.7434999999999996
mp-1211220,Mg3H12SeO9,1.4211999999999998
mp-605684,Mg3H13C9NO13,4.0947
mp-30245,Mg3H4O5,3.5652
mvc-5151,Mg3Mn2(GeO4)3,0.28359999999999985
mvc-4744,Mg3Mn2(Si2O7)2,1.7872999999999997
mp-1041475,Mg3Mn3(AsO4)4,1.8856
mp-767452,Mg3Mn4O7,0.5658000000000003
mp-770722,Mg3Mn5(BO4)4,0.8380999999999998
mp-643573,Mg3MnH7,1.6630999999999996
mp-1222170,Mg3MnNi3O8,1.9214
mp-1222140,Mg3MnO4,0.9642999999999996
mp-1222145,Mg3MnTe4,1.1321
mvc-3610,Mg3Mo2O7,1.8314000000000004
mp-7604,Mg3NF3,3.5817
mp-505365,Mg3Nb6O11,0.2437000000000005
mvc-4482,Mg3Ni2(GeO4)3,0.34460000000000024
mvc-3616,Mg3Ni2O7,0.6126999999999998
mp-1041507,Mg3Ni3(AsO4)4,2.3203
mp-1099253,Mg3NiO4,2.6869000000000005
mp-698183,Mg3P2(H22O15)2,4.8454
mp-766572,Mg3P2(HO)16,5.0338
mp-706335,Mg3P4H28(NO12)2,5.2443
mp-24303,Mg3P4H48(NO15)2,5.400499999999999
mp-643061,Mg3ReH7,2.6637
mvc-14011,Mg3Sb2O7,0.2144000000000004
mp-1080847,Mg3SbN,0.6982999999999997
mp-558458,Mg3Si(O2F)2,5.0611
mp-24097,Mg3Si2H4O9,4.2476
mp-1154476,Mg3Si3(AgO6)2,0.25669999999999993
mvc-3636,Mg3Si3(BiO6)2,3.4641
mvc-3885,Mg3Si3(MoO6)2,3.2979999999999987
mp-1154758,Mg3Si3(NiO6)2,0.15110000000000046
mp-1163940,Mg3Si3(SbO6)2,2.8137000000000008
mvc-3630,Mg3Si3(SnO6)2,0.36519999999999975
mp-1157231,Mg3Si3(WO6)2,2.8024
mvc-4439,Mg3Si4(AgO7)2,0.6335000000000002
mvc-4272,Mg3Si4(BiO7)2,2.6520999999999995
mp-696497,Mg3Si4(HO6)2,5.1766000000000005
mvc-5195,Mg3Si4(MoO7)2,1.9464
mvc-4936,Mg3Si4(NiO7)2,0.8382999999999998
mvc-4389,Mg3Si4(SbO7)2,1.9946
mvc-4535,Mg3Si4(SnO7)2,1.5667999999999995
mvc-5073,Mg3Si4(WO7)2,1.9232999999999996
mp-1222180,Mg3Si4O13,0.0045000000000001705
mp-1222229,Mg3Si9B36C,1.0390999999999997
mp-1222236,Mg3SiO5F,0.7525000000000002
mp-1210674,Mg3SiO6,0.0754999999999999
mvc-15995,Mg3Sn2O7,2.8685
mvc-6189,Mg3Sn3(AsO4)4,2.7066
mp-1042715,Mg3Ta6(FeO6)4,2.6546
mp-864942,Mg3TcH7,2.6375
mp-1222251,Mg3Te2Pb6WO18,2.5298
mp-752452,Mg3Te4O11,2.7501
mp-3118,Mg3TeO6,2.9101000000000004
mp-1222241,Mg3Ti(BO4)2,2.2920000000000003
mvc-4254,Mg3Ti2(Si2O7)2,0.14149999999999974
mvc-15987,Mg3Ti2O7,3.0446
mvc-6187,Mg3Ti3(AsO4)4,0.2096
mp-1222269,Mg3Ti4(PO4)6,0.05209999999999937
mvc-4620,Mg3V2(Si2O7)2,1.9871
mp-690094,Mg3V2O6,1.1945999999999994
mvc-3579,Mg3V2O7,1.211
mvc-11986,Mg3V2O8,3.3680000000000003
mp-1041705,Mg3V3(AsO4)4,0.02059999999999995
mp-1232134,Mg3V4(PO4)6,1.9081
mp-19067,Mg3V6(FeO6)4,2.2286
mp-1222758,Mg3V6Cd2Cu3PbO24,0.2994000000000001
mp-1030015,Mg3WN4,1.9534
mp-771293,Mg3WO6,3.9264
mp-1222179,Mg3Zn3As4,0.0253000000000001
mp-1222377,Mg3ZnH24(CO3)8,4.7108
mp-753315,Mg3ZnO4,3.1526000000000005
mp-675509,Mg4(BiO2)9,0.4326000000000003
mp-1211208,Mg4(MoO4)3,1.3401999999999998
mp-1204533,Mg45Si32(H29O69)2,4.3207
mp-1205288,Mg48Si34H62O147,4.2757
mp-690136,Mg4Al3(HO)17,2.4294
mp-695202,Mg4Al9Cu(SiO4)9,1.9945000000000004
mp-1046497,Mg4Co5(TeO6)3,1.4281999999999997
mp-1046557,Mg4Cr5(TeO6)3,0.2551999999999994
mp-1046612,Mg4Fe5(TeO6)3,0.5022000000000002
mp-1222633,Mg4FeClO13,0.2979999999999998
mp-1222209,Mg4FeO5,2.6262000000000008
mp-30242,Mg4H2O5,4.006500000000001
mp-1046588,Mg4Mn5(TeO6)3,0.7005999999999997
mp-767782,Mg4Mn9O13,0.5553999999999997
mp-779162,Mg4N6O19,3.234
mp-17841,Mg4Nb2O9,3.4252
mp-1046508,Mg4Ni5(TeO6)3,1.854
mp-6137,Mg4P6SN12,4.830500000000002
mp-676305,Mg4Sb2O9,2.1611
mp-1222134,Mg4Se3S,2.6021
mp-1212371,Mg4Si6H6O17,1.345
mp-1182691,Mg4Si6O23,0.0372
mp-1222125,Mg4SiGe,0.1774
mp-1222116,Mg4SiSn,0.024900000000000592
mp-1046309,Mg4Sn5(TeO6)3,1.4229000000000005
mp-17481,Mg4Ta2O9,4.2059
mp-1222094,Mg4Te3Se,2.1467
mp-1046636,Mg4Te3W5O18,0.5434000000000001
mp-1046407,Mg4Ti5(TeO6)3,0.11859999999999983
mp-1046569,Mg4V5(TeO6)3,0.2610999999999999
mp-673834,Mg5(AlSe4)2,1.1317000000000004
mp-1210910,Mg5(C2O9)2,0.04910000000000003
mp-30241,Mg5(HO3)2,3.8709
mp-1198184,Mg5(SiO3)6,0.1260000000000001
mp-678,Mg54Ag17,0.015900000000000247
mp-530754,Mg5Al34O56,0.17269999999999894
mp-743769,Mg5Al4Fe(SiO4)6,2.7101999999999995
mp-677288,Mg5AlH21O17,1.719
mp-1211009,Mg5As4(H11O13)2,3.8422
mp-767791,Mg5Co19O32,0.02059999999999995
mp-720835,Mg5H10(C2O9)2,4.4617
mp-697921,Mg5H8O9,3.5747000000000004
mp-1222211,Mg5Mn3Zn4(SiO6)4,0.06889999999999996
mp-1196847,Mg5Nb(BO4)3,3.0068
mp-1211946,Mg5Pb(SO4)6,5.2204
mp-1195642,Mg5Si2(O4F)2,4.9110000000000005
mp-1198031,Mg5Sn(BO5)2,3.7897
mp-1196921,Mg5Ta(BO4)3,3.8089999999999997
mp-1222168,Mg5Ti(BO5)2,0.4163000000000001
mp-646182,Mg5V2(MoO8)2,2.7858
mp-1194890,Mg63Si32Bi,0.12399999999999968
mp-1195280,Mg64Si31Bi,0.15909999999999958
mp-1194936,Mg64Si32Bi,0.10050000000000026
mp-989522,Mg6Bi2PN,0.2260999999999997
mp-1199718,Mg6H12C14NO24,0.4578
mp-19239,Mg6MnO8,2.2891
mp-21725,Mg6Ni16Ge7,0.0129999999999999
mp-1222090,Mg6SiGe2,0.3492000000000002
mp-1222095,Mg6SiSn2,0.04400000000000048
mp-1222093,Mg6Sn2Ge,0.10570000000000056
mp-1210955,Mg6Te5O16,3.1521000000000003
mp-1200145,Mg7(SiO3)8,0.21999999999999972
mp-1196427,Mg7(SiO7)2,0.18899999999999986
mp-530826,Mg7Al22O40,3.7842
mp-543056,Mg7As6(HO6)4,2.9891000000000005
mp-1094131,Mg7Fe(SiO4)4,3.5697
mp-764245,Mg7Mn5O12,1.3786999999999994
mp-699232,Mg7P2(HO2)8,4.852600000000002
mp-1180494,Mg7Si2(H3O7)2,4.5554000000000014
mp-722896,Mg7Si4(HO8)2,3.8438
mp-559177,Mg7Si8(O11F)2,5.3655
mp-1222471,Mg7TiAl6Si8(H4O19)2,2.5688
mp-743786,Mg7VFeMo15O56,2.0652
mp-570132,Mg8B5IN10,2.6847
mp-767183,Mg8Mn3O11,2.3869000000000007
mp-1198202,Mg8SiW9O49,0.06499999999999995
mp-767145,Mg8V5O16,0.7310999999999996
mp-685878,Mg9(In13S24)2,0.16159999999999994
mp-1222247,Mg9Al8Fe3(SiO4)12,4.0408
mp-705582,Mg9V10O24,0.9199000000000002
mp-15728,MgAg(PO3)3,3.3422
mp-1222065,MgAg2(PS3)2,2.1922
mp-1097433,MgAg2Hg,0.5516999999999999
mvc-9823,MgAg2P2O9,0.015700000000000047
mvc-5377,MgAgAsO5,0.6999000000000001
mp-1044006,MgAgBiO5,0.5313999999999999
mp-998418,MgAgF3,2.1919999999999997
mp-1096301,MgAgPd2,0.07929999999999993
mp-1039141,MgAl,0.1398999999999999
mp-757911,MgAl10O16,4.406999999999999
mp-1194286,MgAl2(PO5)2,0.10400000000000008
mp-1203129,MgAl2As2(HO)18,4.0029
mp-3536,MgAl2O4,5.1095
mp-24505,MgAl2P2(HO)18,5.0097000000000005
mp-1210694,MgAl2SiHO7,0.3365
mp-1210669,MgAl3SiBO9,4.8399
mp-1222184,MgAl6FeSi2(BO9)2,3.591
mp-530216,MgAl6O10,3.7906
mp-1223700,MgAl8Fe3Si8(H2O5)8,3.4476
mp-8376,MgAlBO4,6.0077
mp-1222061,MgAlCr3FeO8,2.2705
mp-1025166,MgAlF5,4.5938
mp-1222041,MgAlFeO4,2.5789000000000004
mp-24142,MgAlH4O2F5,5.837000000000001
mp-1104429,MgAlH5,3.2731000000000003
mp-1189240,MgAlO2F5,0.5108999999999997
mp-6596,MgAlPO5,5.042300000000001
mp-555546,MgAs2(XeF5)4,2.878
mp-556078,MgAs2(XeF8)2,2.9713000000000003
mp-554686,MgAs2(XeF9)2,2.6712
mp-555121,MgAs2S2(OF3)4,3.5807
mp-1042867,MgAs2WO7,2.7749
mp-7623,MgAs4,0.8144
mp-720817,MgAsH15O11,4.1585
mp-1222268,MgAsH16NO10,4.2533
mp-1193403,MgAsNO10,0.0902
mp-1204555,MgAsO8,0.3301000000000001
mp-1047240,MgAsWO5,2.0008
mp-1194889,MgAu2(SO4)4,1.7563
mp-1203384,MgB12(H3O)12,2.0586
mp-1202237,MgB2H13N3,4.9702
mp-1200331,MgB2H4C8(N4O)2,5.3171
mp-706910,MgB2H6O7,5.4125999999999985
mp-542843,MgB2P2H8O13,5.5984
mp-706339,MgB3H15O13,5.1450000000000005
mp-1200895,MgB3H20N3,5.9392999999999985
mp-365,MgB4,0.3640999999999997
mp-1199691,MgB4(H10N)2,6.0667
mp-540731,MgB4(H9O8)2,5.2211
mp-14234,MgB4O7,5.7433000000000005
mp-1205090,MgB6(H3O4)4,5.4406
mp-1196351,MgB6H14O17,5.2735
mp-1200370,MgB6H28(C2O)2,6.0978
mp-978275,MgB7,1.4592
mp-30091,MgB9N,1.6752999999999991
mp-23748,MgBHO3,5.4377
mp-758868,MgBP(H3O4)2,5.3032
mp-1097147,MgBe2Os,0.22630000000000014
mp-1093719,MgBe2Pt,0.4264999999999999
mp-554364,MgBeAl4O8,5.5284
mp-1096574,MgBePt2,0.1181000000000001
mp-1194844,MgBi2(IO)8,0.9814
mp-1043476,MgBi2(PO5)2,2.0539999999999994
mp-1042428,MgBi2O5,0.4382999999999999
mvc-9678,MgBi2P2O9,2.4445
mp-1041145,MgBi3P3O13,2.8387
mp-1199340,MgBi4(PO6)2,3.0506999999999995
mp-1041365,MgBi4O9,1.0166999999999995
mvc-5538,MgBiAsO5,2.8587
mvc-3430,MgBiF5,4.6913
mp-1042627,MgBiMoO5,1.5255999999999998
mp-1097123,MgBiRh2,0.06320000000000013
mp-1042392,MgBiSbO5,1.3769
mp-1044356,MgBiWO5,1.6053000000000002
mp-30034,MgBr2,4.4707
mp-1207230,MgBr6,0.12919999999999998
mp-29771,MgC2,2.562
mp-1211267,MgC2S2(N3O7)2,0.08919999999999995
mp-684804,MgC2S2(OF3)2,2.2023
mp-9166,MgCN2,3.759
mp-5348,MgCO3,4.9603
mp-1198523,MgCO6,1.9067
mp-1222080,MgCd(CO3)2,3.5064999999999995
mp-1181359,MgCd2(ClO2)6,1.1883
mp-1222101,MgCd3(CO3)4,2.9179999999999997
mp-722714,MgCdH4(N2O5)2,2.5641
mp-1093753,MgCdHg2,1.3786
mp-1222003,MgCdS2,0.7236000000000002
mp-1232369,MgCdTe2,1.4496
mp-23210,MgCl2,5.6168
mp-754645,MgCl2O,2.5919
mp-1207313,MgCl6,0.06069999999999976
mp-1043149,MgCo(GeO3)2,1.7168
mp-1045773,MgCo(PO3)4,3.0614
mp-1043503,MgCo(Si2O5)2,2.6467
mp-1041840,MgCo(SiO3)2,2.9549000000000003
mp-1222089,MgCo2(PO4)2,2.9034000000000004
mp-1044011,MgCo2(PO5)2,0.05689999999999972
mvc-12046,MgCo2O5,0.1540999999999999
mp-1043564,MgCo3(P2O7)2,2.3986
mp-1047887,MgCo3P3O13,0.3429999999999997
mp-1042722,MgCoAs2O7,1.9598
mvc-5557,MgCoAsO5,1.0289
mp-1044230,MgCoBiO5,0.4618000000000002
mvc-14233,MgCoF4,3.8341
mvc-14324,MgCoF5,1.9055
mvc-15850,MgCoF6,1.1701
mp-743870,MgCoH16(ClO2)4,3.0051
mp-1042604,MgCoMo2O7,0.8413999999999997
mvc-7748,MgCoNi2O7,0.1496000000000004
mvc-15159,MgCoO2,2.2524
mp-1048235,MgCoP2O7,2.9851999999999994
mp-1046667,MgCoPO5,0.13090000000000002
mp-1042566,MgCoSb2O7,0.6067
mp-1222111,MgCoSiO4,2.6754
mvc-8398,MgCr(GeO3)2,0.6151999999999997
mp-1045788,MgCr(PO3)4,2.3741
mp-1043526,MgCr(Si2O5)2,3.5557000000000003
mp-1041862,MgCr(SiO3)2,2.3232
mp-1211076,MgCr2(NO7)2,0.030699999999999505
mp-1040902,MgCr2(PO4)2,2.2474
mp-1041768,MgCr2CuO7,0.3327
mvc-12009,MgCr2F12,1.2395
mp-19202,MgCr2O4,2.8397
mvc-7371,MgCr2O7,2.4303
mp-1040886,MgCr2P2O9,2.0132
mp-1043704,MgCr3(P2O7)2,2.0229
mp-772325,MgCr3(SO4)6,0.17690000000000006
mp-769544,MgCr3Se2(SO6)4,0.1421
mp-773999,MgCr3Se3(SO8)3,0.15489999999999998
mvc-8321,MgCr4(CuO4)3,0.04079999999999995
mp-1222099,MgCr8Fe3O16,2.1771
mp-1042772,MgCrAs2O7,1.2009999999999998
mvc-5565,MgCrAsO5,1.6569999999999998
mp-1045314,MgCrF4,3.4272
mvc-14034,MgCrF5,2.9398
mp-554955,MgCrF6,1.5334000000000003
mp-1222047,MgCrFeO4,1.7153
mp-1197420,MgCrH22O15,3.2188000000000003
mvc-8414,MgCrNiP2O9,0.4411000000000001
mp-1118395,MgCrO2,1.3697
mp-540704,MgCrO4,2.3629
mp-1042039,MgCrP2O7,3.0375
mp-1046666,MgCrPO5,1.5456000000000003
mp-1046702,MgCrSF5,1.1903
mp-1046669,MgCrSiO5,0.5706000000000002
mp-1042915,MgCu(GeO3)2,0.02289999999999992
mp-1045729,MgCu(PO3)4,0.19700000000000006
mp-1043306,MgCu(Si2O5)2,0.8092999999999999
mp-1041479,MgCu(SiO3)2,0.3771
mp-1040980,MgCu2(BiO4)2,0.19530000000000006
mvc-10462,MgCu2(MoO4)2,1.1153999999999995
mp-1222038,MgCu2(PO4)2,0.17799999999999996
mp-1040928,MgCu2(SbO4)2,0.23599999999999974
mp-756830,MgCu2(SiO3)4,0.8613
mp-1041056,MgCu2(TeO4)2,0.13339999999999996
mp-1041401,MgCu2(WO4)2,1.3334999999999997
mp-1095367,MgCu2AsO7,0.2346000000000001
mp-1189056,MgCu2GeS4,0.7800000000000002
mp-1095960,MgCu2Pt,0.06789999999999985
mp-1188827,MgCu2SiSe4,0.7965000000000004
mp-1043122,MgCu3(MoO3)4,0.8121999999999998
mp-1042619,MgCu3(SnO3)4,0.4779999999999998
mp-1042399,MgCuAs2O7,0.09140000000000016
mvc-5282,MgCuAsO5,0.5773999999999999
mp-1044003,MgCuBiO5,0.2758000000000003
mp-1200133,MgCuCO5,0.5204
mp-1117321,MgCuF4,0.9113000000000002
mp-7352,MgCuP,0.01849999999999952
mp-1041741,MgCuP2O7,0.21069999999999967
mp-1097321,MgCuPd2,0.19730000000000025
mp-1041592,MgCuSb2O7,0.4531000000000001
mp-1041919,MgCuW2O7,0.01100000000000012
mp-1043493,MgFe(GeO3)2,1.3822
mp-1045790,MgFe(PO3)4,4.2169
mp-1043548,MgFe(Si2O5)2,3.7710000000000004
mp-1222202,MgFe(SiO2)2,1.5027000000000004
mp-565256,MgFe(SiO3)2,3.5914
mp-1041045,MgFe2(PO4)2,3.1724999999999994
mvc-13593,MgFe2(SiO3)4,2.4041
mp-1196909,MgFe2BO5,1.2856
mp-1221998,MgFe2O3,1.628
mp-25521,MgFe2P2(HO)18,2.3426
mp-1041009,MgFe2P2O9,2.006
mp-1043946,MgFe3(P2O7)2,3.2309
mp-1041464,MgFe3P3O13,1.943
mp-1222057,MgFe4CoO8,1.4717000000000002
mp-1222046,MgFe4CuO8,0.3619000000000003
mp-1200159,MgFe4H42(S3O23)2,2.208
mp-1221969,MgFe4NiO8,1.5353000000000003
mp-1042809,MgFeAs2O7,1.7611
mp-1047268,MgFeAsO5,1.9847
mp-1210634,MgFeBO4,1.8657
mp-1044380,MgFeBiO5,0.5377000000000001
mp-1117621,MgFeF4,3.6963
mvc-3195,MgFeF5,3.5705
mp-1043103,MgFeNiP2O9,0.21689999999999987
mvc-4866,MgFeO2,1.7102999999999997
mp-778717,MgFeO3,0.026600000000000183
mp-1042037,MgFeP2O7,4.082
mvc-3257,MgFePO5,1.9023
mp-1192819,MgFeSiO4,3.0467
mp-1210623,MgGaBO4,3.1096
mp-1210600,MgGaH5,3.6711
mp-565445,MgGaMo4O7,0.1554000000000002
mp-1043309,MgGe2WO6,1.5448
mp-1016200,MgGeAs2,0.5541
mp-541747,MgGeH12(OF)6,4.5983
mp-4819,MgGeO3,2.5261
mp-34903,MgGeP2,1.4962
mp-24578,MgH10(SeO5)2,4.7347
mp-698365,MgH10C4(N2O3)2,4.785
mp-695987,MgH10CO8,4.7946
mp-1200606,MgH10SO9,5.1674000000000015
mp-24006,MgH12(BrO6)2,4.9018
mp-696845,MgH12(ClO3)2,4.8687000000000005
mp-707373,MgH12(ClO5)2,3.202