task_id,composition,band_gap
mp-780779,Cr(Si2O5)2,1.828
mp-25502,Cr(SiO3)2,0.5258999999999996
mp-1178444,Cr(WO4)3,1.4982
mp-691148,Cr14MoO24,0.42410000000000014
mp-780521,Cr19O48,0.309
mp-542196,Cr2(Bi2O5)3,2.3562
mp-1190798,Cr2(CN2)3,1.1910000000000005
mvc-4499,Cr2(GeO4)3,0.8313999999999999
mp-566883,Cr2(Hg2O3)3,1.8298
mp-647862,Cr2(MoO4)3,2.7182
mp-1101563,Cr2(PO3)5,0.09149999999999993
mp-770163,Cr2(SO4)3,2.5769
mp-1203351,Cr2(Se2O5)3,2.5763
mp-1172462,Cr2(SiO4)3,0.7281
mp-772321,Cr2(WO4)3,3.0223
mp-504441,Cr2Ag2O7,1.3371
mp-565669,Cr2AgBiO8,1.4879999999999998
mp-1197025,Cr2As6O19,0.013500000000000012
mp-705033,Cr2AsC10ClO10,1.7707000000000002
mp-565340,Cr2B(PO4)3,3.0596999999999994
mp-705619,Cr2Bi28O47,1.168
mp-699555,Cr2C13SN3(O2F)5,2.0408
mp-24929,Cr2CdH14(NO2)4,2.8216
mp-19262,Cr2CdO4,2.4765
mp-4338,Cr2CdS4,0.41780000000000017
mp-1226388,Cr2CdSe3S,0.4344999999999999
mp-22605,Cr2CdSe4,0.3300000000000001
mp-1226382,Cr2CdSeS3,0.4632000000000001
mp-1199663,Cr2CoH20N6ClO8,2.6282
mp-24868,Cr2CoO4,2.6060000000000003
mp-1182282,Cr2Cu3(OF)12,0.9337000000000002
mp-558380,Cr2F5,1.4726
mp-19631,Cr2Fe3(SiO4)3,3.1403
mp-776058,Cr2Fe3Co(PO4)6,1.7352
mp-776010,Cr2Fe3Cu(PO4)6,0.5381
mp-1104680,Cr2FeO4,2.4600000000000004
mp-5749,Cr2FeSe4,0.0008999999999996787
mp-765147,Cr2H21I7(N2O)3,1.6466
mp-720712,Cr2H24(IN3)3,1.7647
mp-1227848,Cr2H28C10N6O7,2.3914
mp-1226437,Cr2H2Pb4ClO10F,2.0597000000000003
mp-1198067,Cr2H8N2O7,2.7639
mp-744639,Cr2Hg2H2O9,2.1669
mp-1192977,Cr2Hg2O9,0.4088
mp-24899,Cr2HgO4,1.2575000000000005
mp-565829,Cr2HgO7,2.0069
mp-1181809,Cr2N2O7,0.2766
mp-1202441,Cr2Ni2H64N13Cl11O12,3.7332
mp-1182658,Cr2NiH20(NO7)2,0.6983000000000001
mp-19344,Cr2NiO4,2.4319000000000006
mp-1117519,Cr2O5,1.7574999999999998
mp-763884,Cr2O5F2,2.3236
mp-766796,Cr2OF2,2.0584
mp-705599,Cr2P2O7,2.6129
mp-1040982,Cr2P2O9,0.02039999999999997
mp-31635,Cr2P3O10,0.024099999999999788
mp-776748,Cr2P4H3O16,0.03950000000000009
mp-562181,Cr2P4O13,2.8044999999999995
mp-704115,Cr2P4Pb3O16,2.4533
mp-31653,Cr2P5O16,0.0015000000000000011
mp-566926,Cr2PBrO4,2.1291999999999995
mp-567092,Cr2PIO4,1.6416
mp-1178407,Cr2PO5,0.6404999999999994
mp-31625,Cr2ReO6,0.11210000000000077
mp-1226363,Cr2S2BrCl,0.2690999999999999
mvc-11309,Cr2S5,0.3285
mp-18800,Cr2SiO4,1.9961
mp-560707,Cr2Te4O11,2.3209000000000004
mp-24917,Cr2TeO6,1.3290999999999995
mp-24898,Cr2WO6,1.4806
mp-1200076,Cr2XeF10,1.1654
mp-1041638,Cr3(AsO4)4,0.6809999999999999
mp-861261,Cr3(CoO6)2,0.8752
mp-764630,Cr3(CuO6)2,0.11769999999999993
mp-776667,Cr3(FeO6)2,1.8236
mp-776703,Cr3(NiO6)2,0.011699999999999931
mp-766854,Cr3(OF)2,1.5592
mp-569271,Cr3(P2O7)2,1.3983000000000003
mp-579247,Cr3(PO4)2,2.3522
mp-695952,Cr3(PO4)4,0.026000000000000027
mp-565996,Cr3Ag8(IO6)2,1.4225
mp-560237,Cr3AgO8,1.1888999999999998
mp-641367,Cr3AuO8,1.1076
mp-25743,Cr3B7BrO13,2.4249
mp-653248,Cr3B7ClO13,2.7718
mp-566772,Cr3B7IO13,1.9640000000000004
mp-1213769,Cr3B7O13F,3.0598
mp-24912,Cr3BO6,1.6019999999999994
mp-1197141,Cr3BiNO12,0.015499999999999847
mp-1182750,Cr3C8(NCl2)6,0.015699999999999936
mp-775472,Cr3Co(PO4)4,0.6886000000000001
mp-1201214,Cr3Co2As2(CO)20,1.6901000000000002
mp-771924,Cr3Co5O16,0.2254999999999998
mp-561826,Cr3CuO8,0.4962999999999997
mp-775288,Cr3Fe2Sb3O16,0.4525000000000001
mp-763448,Cr3Fe3(TeO8)2,0.2963
mp-744862,Cr3H24C8(NO5)2,2.1742
mp-602511,Cr3H8(NO5)2,2.025
mp-1214307,Cr3HgF6,1.0655
mp-569317,Cr3InO8,0.26370000000000005
mp-775135,Cr3Ni(PO4)4,0.00990000000000002
mp-772696,Cr3O4,0.9663000000000004
mp-1096920,Cr3O5,0.5747
mp-557959,Cr3O8,0.5032
mp-1196309,Cr3P2H40(C8O5)2,2.0212
mp-775219,Cr3P6WO24,0.02259999999999998
mp-1213842,Cr3Pb5ClO12,0.5457999999999998
mp-653287,Cr3Pb5F19,2.9498
mp-775051,Cr3Sb(PO4)4,1.0055000000000005
mp-774041,Cr3Sb(PO4)6,0.005500000000000005
mp-775347,Cr3Sb3(TeO8)2,1.5265000000000004
mp-777918,Cr3Sb5O16,0.5430000000000001
mp-773170,Cr3SbO8,0.5591999999999997
mp-1048591,Cr3Se2ClO8,0.4213
mp-1226647,Cr3Si3Pb10(ClO12)2,1.3769
mp-773947,Cr3Sn2Sb3O16,0.3979999999999997
mp-771431,Cr3Sn3(SbO8)2,0.6717
mp-770187,Cr3TeO8,0.42310000000000025
mp-773181,Cr3WO8,0.4041999999999999
mp-779956,Cr4(OF3)3,0.6773
mp-1214408,Cr4(P2O7)3,2.3453
mp-24919,Cr4AgBiO14,1.9912
mp-1199387,Cr4BiNO14,0.017800000000000038
mp-1226341,Cr4CdCoS8,0.020299999999999763
mp-505800,Cr4Cu3(PO4)6,0.003099999999999881
mp-706251,Cr4H67C20(NO)16,1.1999
mp-1041443,Cr4O9,0.1837
mp-776723,Cr4OF11,0.9281
mp-767130,Cr4OF6,1.2968000000000002
mp-773396,Cr4P2O9,2.0186
mp-566007,Cr4Si2Br2O7,2.1420000000000003
mp-567043,Cr4Si2Cl2O7,2.3203
mp-768078,Cr4Si4O13,1.3925000000000003
mp-1199834,Cr4Xe5F44,1.2921999999999998
mp-540446,Cr5(PO4)4,1.4295999999999998
mp-767345,Cr5(Si2O7)2,0.6274000000000002
mp-1046527,Cr5(TeO6)3,0.3494999999999999
mp-1213937,Cr5Cu(GeO6)2,0.5170000000000003
mp-1226160,Cr5InS8,0.31539999999999946
mp-773920,Cr5O12,1.7946999999999995
mp-1046050,Cr5O7,0.7811999999999997
mp-771524,Cr5Sb3O16,0.2704
mp-1204438,Cr6CuSi2(Pb5O17)2,0.19469999999999987
mp-504359,Cr6P7O24,0.1596000000000002
mp-505154,Cr7(PO4)6,0.6634999999999995
mp-744682,Cr8Bi4O29,1.6625
mp-565489,Cr8O21,1.6002
mp-1045826,Cr9O13,0.6852999999999998
mp-557592,CrAg(PS3)2,0.9260000000000002
mp-1226281,CrAg(PSe3)2,0.7765
mp-566124,CrAg3ClO4,1.3861
mp-1206806,CrAg3F6,0.2179
mp-19378,CrAgO2,1.6634000000000009
mp-4182,CrAgS2,0.7286999999999999
mp-3532,CrAgSe2,0.3380000000000001
mp-19077,CrAsO4,1.9798
mvc-5643,CrAsO5,0.6869000000000001
mp-1214694,CrAsO6,0.1843
mp-996996,CrAuO2,1.1326
mp-7113,CrAuS2,0.5956000000000001
mp-1197022,CrB2(PbO2)6,1.8656
mp-780501,CrB3(HO3)3,2.1189
mp-1198848,CrB6P2(H17C3)2,0.7475999999999999
mp-19299,CrBO3,2.3026
mp-642975,CrBi12Mo4PbO34,2.5084000000000004
mp-705013,CrBi8O15,1.9015000000000004
mp-566058,CrBiO3,1.5957999999999997
mp-1199140,CrBiO5,0.1946000000000001
mp-1226306,CrBiTeO6,2.0791000000000004
mp-27734,CrBr3,1.2670000000000001
mp-31725,CrBrO,1.4343
mp-1200737,CrC32O5,0.4039999999999999
mp-649195,CrC5SO7,2.2430000000000003
mp-559161,CrCdF6,1.6569999999999998
mp-1226286,CrCdInS4,0.7824
mp-18781,CrCdO4,2.2881
mp-22857,CrCl2,0.7019000000000002
mp-569890,CrCl3,1.452
mp-1178412,CrCo(PO4)2,0.6653000000000002
mp-775991,CrCo3(PO4)4,0.5684
mp-648394,CrCo3C16NO14,1.608
mp-744721,CrCo3H24C6(N10O11)3,0.5816
mp-861562,CrCo3O8,0.4710999999999999
mp-1226307,CrCo4SbO8,0.9448
mp-773306,CrCo5O12,0.4535999999999999
mp-1197764,CrCoH15N5ClO8,1.0861
mp-24376,CrCoH18(CN2)6,1.8694
mp-1226403,CrCoNF6,0.8862999999999999
mp-18788,CrCoO4,1.4983
mp-572465,CrCu(PS3)2,0.9573999999999998
mp-1226296,CrCu(PSe3)2,0.6429
mp-1213744,CrCu(WO4)2,0.4440999999999997
mp-24429,CrCuH18Br5N6,0.0298
mp-24013,CrCuH18N6Cl5,0.5223
mp-510625,CrCuO2,1.6653000000000002
mp-504927,CrCuO4,0.03970000000000007
mp-5862,CrCuS2,0.3433999999999999
mp-568587,CrCuSe2,0.08099999999999953
mp-554340,CrF2,2.5732
mp-560338,CrF3,2.8431
mp-704123,CrF4,1.5634
mp-639662,CrF5,1.3584
mvc-11142,CrF6,2.0818
mp-559001,CrFe(BiO3)2,1.9969
mp-861612,CrFe(PO4)2,2.1968
mp-777476,CrFe2(PO4)3,1.9993
mp-652318,CrFe2C10(Se2O5)2,1.5163
mp-769927,CrFe2O5,0.4787000000000004
mp-775989,CrFe3Sb2(PO4)6,2.2861
mp-776666,CrFe3Sn2(PO4)6,0.03779999999999984
mp-704853,CrFe4P2(CO)18,0.6716
mp-771182,CrFe5(PO4)6,1.4095
mp-1226366,CrFeCoO4,1.0017999999999998
mp-1197312,CrFeH18(NF)6,4.1408000000000005
mp-1078458,CrFeO3,1.7407
mp-769978,CrFeO4,0.12550000000000014
mp-1226257,CrFeTeO6,1.4142
mp-1226251,CrGa(BiO3)2,2.214600000000001
mp-1215140,CrGaMo6(H19O20)2,3.3617
mp-1226344,CrGeSbO6,1.7009999999999996
mp-735510,CrH10C2(NO4)2,1.7187
mp-1204986,CrH10N2Cl5O,2.7334
mp-763306,CrH10S2(NO2)4,2.9651
mp-745120,CrH10SNO10,2.2768
mp-1202852,CrH10SO9,3.0309
mp-745175,CrH12(ClO2)3,3.0459
mp-1202459,CrH12C2(N3O2)2,3.1522
mp-745188,CrH12N3(OF2)3,3.4088000000000003
mp-746364,CrH12Pd(NO)4,2.5521000000000003
mp-744472,CrH14N4Cl3O,3.1829
mp-1226479,CrH15N6Cl2O,2.3633
mp-744264,CrH15S2O15,3.3328
mp-25500,CrH17N4Cl2O3,3.6068
mp-743538,CrH18(O3F)3,4.0705
mp-868120,CrH18C5(NO)4,3.1937
mp-758907,CrH18I7N6,1.4345
mp-1203990,CrH20N2O6F5,4.0125
mp-745047,CrH20S2(NO7)2,2.7076
mp-1226463,CrH5O4,2.4813
mp-1196508,CrH6C3(S2N)3,1.7986
mp-745180,CrH6SO7,3.0894000000000004
mp-744322,CrH8(NO2)2,2.9217
mp-24528,CrH8C4(S2N3)2,1.1525
mp-866468,CrH9(BrN)3,1.5586
mp-504919,CrH9(CN2)3,1.9983
mp-743958,CrH9C6(S2O)3,2.612
mp-1197579,CrHC7NO5F2,3.5959000000000003
mp-691133,CrHO2,2.8264
mp-762136,CrHSe3O8,2.8849
mp-566001,CrHg(PbO3)2,2.0835
mp-566661,CrHg3(PbO4)2,1.8827
mp-565438,CrHg3(SO2)2,1.7105
mp-565639,CrHg3O5,1.6543
mp-541547,CrHg5O6,0.8531
mp-555771,CrHg5S2O5,1.6946
mp-567329,CrHg6As4Br7,0.24529999999999985
mp-558864,CrHgF6,1.4169999999999998
mp-24198,CrHgH18N6Cl5,2.6843000000000004
mp-19380,CrHgO4,1.3635
mp-27215,CrI2,0.01529999999999987
mp-1213805,CrI3,1.0587
mp-1214385,CrI7N6,0.00269999999999998
mp-28532,CrInBr3,0.4912999999999999
mp-769663,CrInO3,1.4046000000000003
mp-557158,CrMoF6,2.5916
mp-1226313,CrMoO3,0.7679999999999998
mp-1213733,CrMoO4,0.6457999999999999
mp-1197873,CrN3O4,0.6261000000000001
mp-1191764,CrN4Cl(O2F)2,0.1593
mp-1214206,CrN4Cl2O3,0.5613
mp-1182156,CrN5Cl3,1.374
mp-1192059,CrNF4,0.4045999999999999
mp-1213761,CrNi2BO5,2.5635000000000003
mp-1213740,CrNiAg2F7,1.4612
mp-690539,CrNiF6,1.5409000000000002
mp-18726,CrNiO4,1.9240000000000002
mp-1226272,CrNiPO5,1.9889
mp-764219,CrOF,2.3138
mp-31703,CrOF3,2.1075
mp-765105,CrOF4,2.3486
mp-541142,CrP(HO)5,2.8008
mp-743898,CrP2H13(NO5)2,3.6096
mp-744586,CrP2H14(NO3)3,3.7499
mp-743879,CrP2H15N2O11,3.7788
mp-1201441,CrP2H15O14,3.4676
mp-1182808,CrP2H16N3O10,3.6822
mp-735484,CrP2H17N4O9,3.9867
mp-540274,CrP2O7,0.6454
mp-566933,CrP2Pb5O13,2.1529000000000003
mp-605503,CrP3(HO5)2,3.2898
mp-581475,CrP3H17N3O13,2.7258
mp-743545,CrP3H18C6(SO)6,2.5998
mp-1188638,CrP4(CO)2,0.1125
mp-775459,CrP4O11,2.6608
mp-775489,CrP6(WO8)3,2.0669999999999997
mp-615503,CrPC5Br3O5,2.2430000000000003
mp-1201901,CrPC5Cl3O5,2.7537000000000003
mp-1196337,CrPH12(CO)4,2.3857
mp-774136,CrPHO5,0.4052
mp-1199506,CrPO10,0.3930000000000001
mp-764345,CrPO4,2.1378000000000004
mp-540466,CrPO5,1.3882
mp-542096,CrPS4,0.6760000000000002
mp-1197980,CrPb2F7,3.408300000000001
mp-24901,CrPb2O5,1.8218
mp-705034,CrPb5O8,1.8799
mp-1191060,CrPb6(Cl3O4)2,0.2471000000000001
mp-19146,CrPbO4,2.0487
mp-1205064,CrPt(NCl)5,0.006699999999999928
mp-1213906,CrRu(NF)6,0.10650000000000004
mp-22998,CrSBr,0.1816
mp-771067,CrSO4,1.5224000000000006
mp-1198864,CrSO6,0.07419999999999999
mp-775076,CrSb(PO4)2,1.5183999999999995
mp-743950,CrSb2H12(C2O)4,2.2893000000000003
mp-775202,CrSb3(PO4)6,1.2841000000000002
mp-1226278,CrSb3Pb4O13,0.9775
mp-566402,CrSbF10,1.3099999999999996
mp-33857,CrSbO4,0.8623000000000003
mp-9130,CrSbS3,0.5817999999999994
mp-15236,CrSbSe3,0.4752999999999998
mp-1226197,CrSbTeO6,0.7310999999999996
mp-1200173,CrSi(Ag3O4)2,0.21879999999999988
mp-1196749,CrSiH8(O2F3)2,3.4099000000000004
mp-1143241,CrSiO4,0.6955000000000005
mp-3779,CrSiTe3,0.5279999999999996
mp-772477,CrSn(PO4)2,0.4352000000000005
mp-774022,CrSn3(PO4)6,0.4738
mp-1226180,CrSnSbO6,1.6010999999999995
mp-775790,CrTe(WO6)2,1.6336000000000002
mp-540922,CrTe3,0.18849999999999945
mp-1226283,CrWO3,0.9816
mp-18785,CrWO4,1.6685999999999996
mvc-5774,CrWO6,0.9157
mp-1204829,CrXeF10,1.5292
mp-558341,CrXeF6,1.7997999999999998
mp-569897,Cs(BBr)6,2.7979
mp-570530,Cs(BCl)6,3.2599
mp-23951,Cs(BH)3,4.3266
mp-24136,Cs(BH)6,5.381399999999998
mp-640353,Cs(BI)6,1.7666000000000002
mp-1192281,Cs(BO)12,0.0222
mp-672338,Cs(Bi2Te3)2,0.3580999999999994
mp-545487,Cs(CO)2,2.6907
mp-1104663,Cs(MoSe)3,0.09289999999999933
mp-1214012,Cs(Nb2Cl5)3,0.9721000000000002
mp-29704,Cs(SO2)2,2.2336
mp-8890,Cs(SbS2)2,1.4413
mp-3312,Cs(SbSe2)2,1.1176
mp-561786,Cs(TeO3)2,0.7305000000000001
mp-1202492,Cs10Ge2O9,0.3193000000000001
mp-1199790,Cs10P4PdSe16,1.2619
mp-581173,Cs10Si7O9,1.3593000000000002
mp-1199833,Cs10Tl6SiO4,0.2121
mp-1197143,Cs11Tl6Cl29,1.7097
mp-582185,Cs12Nb(In2As3)3,0.8098999999999998
mp-1226383,Cs12Sn2As6O,0.5646
mp-1226387,Cs12Sn2Bi6O,0.1618999999999997
mp-1198905,Cs12Sn8GeO4,1.3022999999999998
mp-1201827,Cs13Nb2(In3As5)2,0.058600000000000214
mp-1087549,Cs15W7N19,1.556
mp-1178471,Cs2(B2O3)9,5.0863000000000005
mp-1203769,Cs2(CoN8)3,0.10050000000000003
mp-1213727,Cs2(PSe2)3,1.3958
mp-1227596,Cs2(WO4)3,0.07819999999999994
mp-1113578,Cs2AgAsBr6,0.8240000000000001
mp-1113543,Cs2AgAsCl6,1.3152
mp-561622,Cs2AgAsS4,1.5478
mp-1097285,Cs2AgAu,1.974
mp-567776,Cs2AgAuCl6,0.7122999999999999
mp-1113264,Cs2AgBiI6,0.8526
mp-640052,Cs2AgBr3,2.9701
mp-1190886,Cs2AgCl3,3.0149
mp-510565,Cs2AgF4,0.1767
mp-540881,Cs2AgI3,2.6311
mp-1113622,Cs2AgIrF6,1.1597000000000002
mp-1113243,Cs2AgMoBr6,0.4889999999999999
mp-1113232,Cs2AgMoCl6,0.8081999999999998
mp-1112943,Cs2AgSbBr6,0.9025
mp-1112940,Cs2AgSbCl6,1.4012
mp-1112941,Cs2AgSbI6,0.4386999999999999
mp-510710,Cs2AgSbS4,1.4883000000000002
mp-572149,Cs2Al(NO3)5,2.9065
mp-554206,Cs2Al2As2O7,3.6603
mp-560387,Cs2Al2P2O9,4.899699999999998
mp-557359,Cs2Al2Sb2O7,3.6378
mp-1201495,Cs2Al2Si3O10,4.4772
mp-1113577,Cs2AlAgBr6,1.2019
mp-1113621,Cs2AlAgCl6,2.2588
mp-1113614,Cs2AlAgF6,3.4927
mp-1113220,Cs2AlAuCl6,0.6051000000000002
mp-1113113,Cs2AlAuF6,1.5221
mp-1113187,Cs2AlCuCl6,0.657
mp-989648,Cs2AlGaH6,0.8581000000000001
mp-1113281,Cs2AlInBr6,2.036
mp-1113280,Cs2AlInCl6,2.983
mp-1112586,Cs2AlInF6,4.5675
mp-989535,Cs2AlInH6,0.6103999999999998
mp-1112896,Cs2AlInI6,0.9566
mp-542656,Cs2AlP3O10,4.9085
mp-1112506,Cs2AlTlBr6,2.7951
mp-1112505,Cs2AlTlCl6,3.8104
mp-1111952,Cs2AlTlF6,5.6135
mp-989575,Cs2AlTlH6,1.1345
mp-1112111,Cs2AlTlI6,1.5910999999999995
mp-557115,Cs2As2OF10,3.932
mp-8857,Cs2As2Pd,0.9488
mp-1206558,Cs2As2Pt,0.9309000000000004
mp-1192609,Cs2As2Se6O,0.7032999999999998
mp-15557,Cs2As3,0.4474999999999998
mp-558846,Cs2As4Pd3O14,0.32799999999999985
mp-650280,Cs2As8S13,1.5194
mp-1112619,Cs2AsAuCl6,0.17710000000000006
mp-1113149,Cs2AsAuF6,0.8590000000000001
mp-989511,Cs2AsBrCl6,0.0675
mp-1226376,Cs2AsH3SeO8,3.8394
mp-29194,Cs2Au2Se3,1.4632999999999998
mp-1097162,Cs2AuBr,3.1706000000000003
mp-1093718,Cs2AuCl,3.123
mp-1093896,Cs2AuI,3.1674
mp-1213928,Cs2B12H4F9,3.6099
mp-1213751,Cs2B12HF12,2.5329
mp-1199225,Cs2B12OF12,0.14310000000000006
mp-1019604,Cs2B2S3O13,5.8455
mp-1196353,Cs2B6NO2,0.6691
mp-558539,Cs2Ba2(CO3)3,4.3381
mp-754272,Cs2Ba2O3,1.6482
mp-1019605,Cs2Ba3(P2O7)2,4.7249
mp-1226237,Cs2BaBr4,4.1594
mp-1229192,Cs2BaCl4,4.9316
mp-755217,Cs2BaO2,1.4555
mp-1019603,Cs2BaP2O7,4.6544
mp-1203665,Cs2BaTa6(Br5O)3,0.30490000000000017
mp-1193604,Cs2BeCl4,5.3519000000000005
mp-5013,Cs2BeF4,6.8746
mp-755292,Cs2BeO2,2.8121
mp-1080693,Cs2Bi2Pd,0.5383
mp-555117,Cs2Bi4O7,2.6731
mp-1229208,Cs2Bi4Se7,0.9019000000000004
mp-680317,Cs2Bi8Se13,0.9106
mp-1112930,Cs2BiAuBr6,0.28269999999999995
mp-1113443,Cs2BiAuCl6,0.6745000000000001
mp-1201858,Cs2BiPWO8,3.9087
mp-1226161,Cs2BrCl,4.4618
mp-989543,Cs2BrCl6F,0.9489
mp-1029699,Cs2CN2,2.2801
mp-616458,Cs2CO3,3.2179
mp-1079663,Cs2Ca(Cl2O)2,2.7225
mp-1213739,Cs2Ca2(SO4)3,5.649
mp-562057,Cs2Ca2Be3F12,7.1052
mp-677292,Cs2CaAl4(SiO4)4,2.8667
mp-1025267,Cs2CaBr4,4.4815000000000005
mp-1025185,Cs2CaCl4,5.0298
mp-15157,Cs2CaF4,6.1005
mp-697133,Cs2CaH4,3.01
mp-753803,Cs2CaO2,2.3181000000000003
mp-1226202,Cs2CaP2O7,4.9246
mp-989570,Cs2CaSnCl6,3.6131
mp-1202328,Cs2CaV2O7,3.3955
mp-1200495,Cs2Cd2(MoO4)3,4.1401
mp-1201213,Cs2Cd3(B4O7)4,4.5399
mp-559668,Cs2CdBi2S5,1.9339
mp-1188970,Cs2CdFe(CN)6,4.112
mp-1194601,Cs2CdGe3S8,2.3391
mp-1096400,Cs2CdHg,0.8072999999999999
mp-1103539,Cs2CdI4,2.8774
mp-1195999,Cs2CdP2O7,3.3560000000000003
mp-1113262,Cs2CeAgBr6,0.2376999999999998
mp-1113570,Cs2CeAgCl6,0.2633000000000001
mp-1113271,Cs2CeAgI6,0.2136
mp-572902,Cs2CeAsS3Cl2,0.1059000000000001
mp-1101094,Cs2CeCl6,1.6178
mp-1113363,Cs2CeCuCl6,0.26780000000000026
mp-1113362,Cs2CeCuI6,0.206
mp-1198000,Cs2CeN5O17,0.09699999999999998
mp-768223,Cs2CeO3,2.2437000000000005
mp-1213846,Cs2CeTa6(Br5O)3,0.13070000000000004
mp-550254,Cs2Co(NO3)4,2.8266
mp-643125,Cs2Co(PO3)4,3.1859
mp-1213811,Cs2Co(SO7)2,0.1181000000000001
mp-622214,Cs2Co2(MoO4)3,2.6642
mp-1214168,Cs2CoBr4,0.8219000000000001
mp-1193242,Cs2CoCl4,0.8545
mp-1226314,Cs2CoCu3F10,0.3325
mp-610706,Cs2CoF6,1.8373
mp-863299,Cs2CoH12(SO7)2,3.3016
mp-1192894,Cs2CoI4,0.6525000000000001
mp-547887,Cs2CoO3,0.5157
mp-542168,Cs2CoSiO4,2.7201000000000004
mp-565644,Cs2Cr(NO3)5,2.7168
mp-602267,Cs2Cr4Cd(HO4)4,2.7029
mp-603285,Cs2Cr4Cu(HO4)4,0.8804
mp-705345,Cs2Cr4O13,1.7448
mp-633688,Cs2CrH2Cl5O,2.5142
mp-1202581,Cs2CrH8Cl5O4,2.9503
mp-647813,Cs2CrO4,3.2422000000000004
mp-1192085,Cs2Cu2Sb2Se5,0.8199000000000001
mp-556177,Cs2Cu2Si8O19,1.1123999999999998
mp-638252,Cs2Cu3(P2O7)2,0.6237000000000001
mp-1106088,Cs2Cu3SnF12,0.04729999999999995
mp-1112612,Cs2CuAsCl6,0.5581
mp-1112278,Cs2CuBiBr6,0.6407
mp-1111471,Cs2CuBiCl6,0.9327
mp-1110978,Cs2CuBiF6,1.1671999999999998
mp-1113070,Cs2CuBiI6,0.3531
mp-616439,Cs2CuCl4,0.3763
mp-542944,Cs2CuH12(SO7)2,0.6475000000000001
mp-1198901,Cs2CuH8(SeO6)2,0.8605999999999999
mp-1112273,Cs2CuMoBr6,0.3459000000000001
mp-1113182,Cs2CuMoCl6,0.7099000000000002
mp-1112885,Cs2CuMoI6,0.07100000000000017
mp-540999,Cs2CuO2,0.014600000000000168
mp-1191467,Cs2CuP2O7,0.7008000000000001
mp-1111879,Cs2CuSbBr6,0.34939999999999993
mp-1111461,Cs2CuSbCl6,0.6773000000000002
mp-1112882,Cs2CuSbI6,0.034900000000000375
mp-1196579,Cs2CuSi5O12,0.1916000000000002
mp-1113610,Cs2DyAgCl6,3.6295
mp-1112927,Cs2DyAuCl6,2.0082
mp-540695,Cs2DyCl5,5.0074
mp-1112958,Cs2DyCuCl6,2.3805
mp-1113595,Cs2ErAgCl6,3.6313
mp-1112928,Cs2ErAuCl6,1.9136
mp-1214000,Cs2ErCl5,4.9712
mp-1112917,Cs2ErCuCl6,2.283300000000001
mp-1196674,Cs2ErSi4O10F,4.793
mp-1195142,Cs2ErSi6O14F,4.6877
mp-1202238,Cs2Fe2(MoO4)3,0.05710000000000015
mp-1200525,Cs2Fe2P3O8F7,2.5574
mp-1188475,Cs2FeCl5O,0.14700000000000002
mp-1213714,Cs2FeF5,3.6944
mp-1213721,Cs2FeHF5,3.4159
mp-571284,Cs2FeNi(CN)6,1.5419000000000005
mp-540988,Cs2FeO4,1.6677
mp-1189477,Cs2FeOF5,0.4805999999999999
mp-556330,Cs2Ga2B2O7,3.7986
mp-572921,Cs2Ga3As5O18,2.4251
mp-1113553,Cs2GaAgBr6,0.0644
mp-1113623,Cs2GaAgCl6,1.0187
mp-1113583,Cs2GaAgF6,2.7260000000000004
mp-1112947,Cs2GaAuF6,0.9576
mp-1229172,Cs2GaFeS4,0.4284000000000001
mp-562504,Cs2GaP3O10,4.1491
mp-29372,Cs2GaSb2,1.0828000000000002
mp-1113592,Cs2GdAgCl6,2.0537
mp-1112633,Cs2GdAuCl6,1.5263
mp-1213731,Cs2GdCl5,2.8231
mp-1226191,Cs2Ge(TeO4)3,0.38649999999999984
mp-572598,Cs2Ge2S5,2.4156
mp-1226455,Cs2GeB4O9,4.1499000000000015
mp-27882,Cs2GeCl6,2.215
mp-8217,Cs2GeF6,6.032
mp-573150,Cs2GeO3,3.0623
mp-560216,Cs2GeP4O13,4.1237
mp-1102254,Cs2GeSe3,1.6710000000000005
mp-1104024,Cs2GeSe4,1.6991999999999998
mp-662549,Cs2GeTe4,0.5657999999999999
mp-1190751,Cs2H2C2O5,3.4246000000000003
mp-643010,Cs2H4Pt,3.2534
mp-707803,Cs2H4RuNCl5O3,1.7959999999999998
mp-758948,Cs2H6CO6,4.0411
mp-643243,Cs2H6Pt,3.9085
mp-1096437,Cs2HCl,2.3183
mp-1226215,Cs2Hf(WO4)3,2.9348
mp-1238793,Cs2HfBr6,3.278
mp-1120741,Cs2HfCl6,4.2142
mp-13948,Cs2HfF6,7.2288
mp-29398,Cs2HfI6,2.2062
mp-1178405,Cs2HfO3,3.8301
mp-1202194,Cs2Hg(BSe)9,1.8631
mp-1213712,Cs2Hg3(GeS4)2,1.7626000000000002
mp-1104408,Cs2Hg3I8O,0.0746
mp-1106156,Cs2Hg3Se4,1.188
mp-1093817,Cs2HgAu,0.09010000000000007
mp-1183950,Cs2HgBr4,2.4657
mp-1191136,Cs2HgC2SI4O,0.7465999999999999
mp-1203522,Cs2HgCl4,3.0712
mp-8963,Cs2HgF4,2.0818
mp-28421,Cs2HgI4,2.0398
mp-7232,Cs2HgO2,2.0689
mp-1079232,Cs2HgPdCl6,1.3651
mp-1093874,Cs2HgSe,0.8016000000000001
mp-1185537,Cs2HgTe,1.8023
mp-1213722,Cs2HoCl5,4.9106
mp-572805,Cs2I4O11,2.9238
mp-1096010,Cs2IBr,3.6792
mp-992141,Cs2IBrCl6,0.8589
mp-989516,Cs2ICl6F,1.1261
mp-1194101,Cs2In(IO3)6,0.003799999999999804
mp-21835,Cs2In2Sb3,0.7882999999999996
mp-567752,Cs2In3,0.008000000000000007
mp-1113554,Cs2InAgBr6,0.2659
mp-1096926,Cs2InAgCl6,1.0928
mp-1113588,Cs2InAgF6,2.1843
mp-1112893,Cs2InAsBr6,0.3335999999999999
mp-1113140,Cs2InAsF6,2.1061
mp-1112891,Cs2InAsI6,0.129
mp-1112611,Cs2InAuF6,0.6839
mp-1112892,Cs2InBiBr6,0.8533999999999999
mp-1112889,Cs2InBiCl6,1.3635
mp-989538,Cs2InBiF6,2.2862
mp-1112890,Cs2InBiI6,0.00010000000000021103
mp-1200718,Cs2InCl5O,2.6098
mp-1112627,Cs2InGaBr6,1.0265
mp-1113201,Cs2InGaCl6,1.8000000000000005
mp-1113099,Cs2InGaF6,3.3138
mp-1113095,Cs2InGaI6,0.2835000000000001
mp-1113094,Cs2InSbBr6,0.4146999999999999