task_id,composition,band_gap
mp-5077,NaLi2Sb,0.6800000000000002
mp-1097585,NaLi2Tl,0.18659999999999988
mp-777597,NaLi2V3O9,3.0393
mp-505381,NaLi3(H2N)4,2.5676
mp-775132,NaLi3Fe4(SiO3)8,2.5606000000000004
mp-1220817,NaLi3Ga4(SiO3)8,4.3219
mp-561254,NaLi3GeO4,3.6606
mp-559904,NaLi3SiO4,4.4978
mp-776523,NaLi3Ti2Al2(PO4)6,2.5061
mp-777190,NaLi3Ti2Cr2(PO4)6,2.8234000000000004
mp-850140,NaLi3Ti2Fe2(PO4)6,2.4483
mp-1220781,NaLi3V4O12,3.0451
mp-1221143,NaLi4(H2N)5,2.6689
mp-1101478,NaLi5Fe2P2(CO7)2,4.019500000000002
mp-773772,NaLi5Mn2P2(CO7)2,3.5994999999999995
mp-569525,NaLi5N2,0.3542
mp-744549,NaLi5Ti3Cr3(PO4)9,2.191
mp-775490,NaLi7Fe8(SiO3)16,2.7108
mp-1101479,NaLi9Fe10(SiO3)20,2.7310000000000003
mp-1221039,NaLiAl4(SiO6)2,3.1305
mp-1203079,NaLiB2(H5N)2,4.0057
mp-553926,NaLiB4O7,5.7974
mp-1209980,NaLiBeF4,7.3931
mp-559533,NaLiCO3,4.4482
mp-1220967,NaLiCdS2,1.6134
mp-1204228,NaLiCoPO4F,2.5237
mp-775900,NaLiCu(PO3)3,1.2606000000000002
mp-1209986,NaLiEr2F8,7.235
mp-853133,NaLiFe2(SiO3)4,2.7085
mp-1198378,NaLiFePO4F,3.5748
mp-1220982,NaLiGa2(SiO3)4,4.275
mp-6663,NaLiGe4O9,2.6592
mp-698457,NaLiH4C2O5,4.616300000000002
mp-1096338,NaLiHg2,0.12360000000000015
mp-1210003,NaLiHo2F8,7.3269
mp-1002069,NaLiICl,4.1874
mp-677430,NaLiLa2Ti4O12,1.9969
mp-1209991,NaLiLu2F8,7.2714
mp-1035393,NaLiMg14O15,1.9830999999999996
mp-1040085,NaLiMg30O31,2.6443
mp-1196828,NaLiMgPO4F,5.119300000000001
mp-777193,NaLiMn2Fe4(PO4)6,1.3958
mp-778279,NaLiMnP2O7,3.8104
mp-763833,NaLiMnPCO7,0.7532
mp-540983,NaLiMo(H2O3)2,4.5257
mp-1200250,NaLiNiPO4F,4.2508
mp-755144,NaLiO,2.8789999999999996
mp-723426,NaLiP2(H4O5)2,5.129099999999998
mp-961703,NaLiPt,0.5526
mp-8452,NaLiS,2.2642
mp-6783,NaLiSO4,5.5381
mp-28603,NaLiSe,2.4375
mp-1192726,NaLiSi2H4O7,4.8626
mp-558267,NaLiSiB3HO8,5.2406
mp-8754,NaLiTe,2.2840000000000003
mp-555420,NaLiTi3O7,2.6234
mp-776520,NaLiTiAl(PO4)3,2.5405999999999995
mp-1096278,NaLiTl2,0.19540000000000024
mp-1210006,NaLiTm2F8,7.3016
mp-764851,NaLiV(OF)2,1.5423000000000002
mp-1221048,NaLiV2O6,3.1446
mp-558597,NaLiY2F8,7.302799999999999
mp-676483,NaLiZnP2O7,4.2378
mp-1220972,NaLiZnS2,1.8252
mp-15543,NaLiZr(Si2O5)3,5.2029999999999985
mp-1210580,NaLu(ReO5)4,0.6642999999999999
mp-29001,NaLuCl4,5.1662
mp-6712,NaLuGeO4,3.6234
mp-755311,NaLuO2,4.061