task_id,composition,band_gap
mp-1079409,Ca(NCl)2,1.5326
mp-3142,Ca(NO3)2,3.6222
mp-1182253,Ca(NO4)2,2.061
mp-1182399,Ca(NO5)2,0.2504
mp-38586,Ca(Nd2Se3)4,0.0019000000000000128
mp-35876,Ca(NdS2)2,2.0613
mp-37263,Ca(NdTe2)2,1.0995999999999997
mp-21312,Ca(Ni2B)6,0.02340000000000053
mp-510484,Ca(Ni2Sn)2,0.03639999999999954
mvc-15041,Ca(NiO2)2,0.3921000000000001
mp-18718,Ca(NiO2)4,0.4838
mp-11168,Ca(PIr)2,0.4943
mp-5680,Ca(PO3)2,5.4991
mp-38347,Ca(Pr2Se3)4,0.00199999999999978
mp-34185,Ca(PrS2)2,2.0570000000000004
mp-37520,Ca(PrTe2)2,1.1032000000000002
mp-1198612,Ca(ReO5)2,0.6312000000000002
mp-17998,Ca(RhO2)2,0.8186999999999998
mp-1214392,Ca(SO5)2,1.16
mp-1041690,Ca(SbO2)2,2.5224
mp-1047976,Ca(SbO2)4,1.4866
mp-9125,Ca(SbO3)2,2.6943
mp-17597,Ca(ScS2)2,1.2884000000000002
mp-772779,Ca(SeO3)2,2.911
mp-1214355,Ca(SiO2)8,0.4138999999999999
mp-36100,Ca(SmS2)2,2.0834
mp-1041556,Ca(SnO2)2,1.6598999999999997
mp-1047987,Ca(SnO2)4,0.5571999999999999
mp-38327,Ca(TbS2)2,2.1434000000000006
mp-1194132,Ca(TmS2)2,1.5597
mp-1227395,Ca(TmTe2)2,0.6163000000000003
mvc-13487,Ca(VN)2,0.19120000000000026
mp-1042163,Ca(WO2)2,1.5984000000000005
mp-1045231,Ca(WO2)4,1.1844
mp-1045717,Ca(WO3)2,1.1728
mp-18642,Ca(YS2)2,1.5336999999999996
mp-1227380,Ca(YTe2)2,0.6086
mp-9571,Ca(ZnAs)2,0.3873000000000002
mp-1029258,Ca(ZnN)2,0.4970999999999997
mp-9569,Ca(ZnP)2,0.875
mp-1202534,Ca10Ag(PO4)7,3.7444
mp-1215019,Ca10Al2Cu19,0.04739999999999967
mp-695592,Ca10Al6Si13N30,1.8137
mp-1019569,Ca10Ge16(B2O17)3,2.8867000000000003
mp-695254,Ca10La6Mg3Ti13O48,1.9166
mp-677026,Ca10Mg7Al6Si17O60,4.3438
mp-1227820,Ca10Nb5InO24,2.755
mp-1195864,Ca10P6CO27,5.1289
mp-686571,Ca10P6ClO24F,5.4033
mp-29760,Ca10P6O25,3.1485
mp-1227747,Ca10P6SO24,3.8447
mp-17516,Ca10P6SeO24,3.7475
mp-42163,Ca10Si3S3(ClO12)2,4.5002
mp-1227873,Ca10Si3S3(O12F)2,4.4484
mp-1203161,Ca10Si5(ClO10)2,0.5299000000000003
mp-534838,Ca10Ta3Ti4Al3(SiO5)10,2.8014
mp-1173088,Ca10TaTi8Al(SiO5)10,2.8278
mp-693409,Ca10Ti8NbAl(SiO5)10,2.8619
mp-743819,Ca10Ti8NbFeO30,1.9961
mp-1227627,Ca10V3P3(O12F)2,3.803900000000001
mp-697835,Ca10V5Fe15(BiO24)2,1.0886
mp-891956,Ca10V6O25,2.3500000000000005
mp-1214126,Ca10VP5(O12F)2,3.8652
mp-4800,Ca11(CN5)2,0.7760000000000002
mvc-11164,Ca11(FeN5)2,0.5556999999999999
mvc-13041,Ca11(MnN5)2,0.000500000000000167
mp-33318,Ca11Al14O32,3.3720000000000003
mp-1214215,Ca11AlSb9,0.9172000000000002
mp-677078,Ca11AlSi3ClO18,3.5854
mp-694886,Ca11Cr7O28,0.8536000000000001
mp-1214384,Ca11GaSb9,0.8177000000000003
mp-29722,Ca11InSb9,0.8375000000000004
mp-555508,Ca11Si4SO18,3.5249
mp-1227537,Ca11Si9As16,0.5645000000000002
mp-1198370,Ca11Sn3C8,0.6538999999999997
mp-720971,Ca12Al11Si3Cl5O32,4.3306
mp-530149,Ca12Al14O33,1.9743
mp-27407,Ca12Be17O29,3.6699
mp-1227684,Ca12FeCo7O24,0.6025000000000005
mp-746884,Ca12Mn8Si7(H5O16)3,1.0723
mp-1227689,Ca12ScCo7O24,0.5079000000000002
mp-1228717,Ca13Nb3(Si2O9)4,0.3624000000000001
mp-1182805,Ca13Si10(O17F5)2,0.0029000000000000137
mp-703370,Ca13Si10H12(O17F5)2,5.0307
mp-531213,Ca13Y6F43,0.6283000000000003
mp-1214214,Ca14Al12Zn4O35,0.3546999999999993
mp-567799,Ca14AlSb11,0.9102999999999994
mp-568790,Ca14GaAs11,0.5969000000000002
mp-695227,Ca14La6Mg3Ti17O60,2.1726
mp-532160,Ca14MnP11,0.08449999999999935
mp-1228737,Ca14MnP9(O12F)3,5.1086
mp-686347,Ca16MgAl14Si9O56,1.0407000000000002
mp-677269,Ca16Zr9Ta7N7O41,2.0888
mp-1229261,Ca17Ni19(PO4)24,3.4446
mp-534782,Ca18Nd2Si3P9(O16F)3,4.3443000000000005
mp-760021,Ca19(Cu12O23)2,0.009000000000000341
mp-734733,Ca19(Mg4H27)2,2.7886
mp-1228767,Ca19Co2(PO4)14,0.01059999999999972
mp-1228780,Ca19Mg(AsO4)14,0.00219999999999998
mp-1228644,Ca19Mg2(PO4)14,5.099
mp-695095,Ca19Si6S6(ClO24)2,3.9751
mp-1191862,Ca2(ZnSn2)3,0.3693
mp-532089,Ca20Er10F69,0.6417000000000002
mp-1214964,Ca21(Cd2Bi9)2,0.1528999999999998
mp-1194550,Ca21(Zn2As9)2,1.0442
mp-1194667,Ca21(Zn2Sb9)2,0.6514000000000006
mp-1228648,Ca24Mg8B16C8O73,0.17300000000000004
mp-983598,Ca2AgBi,0.055600000000000094
mvc-3976,Ca2AgSbO6,0.5964
mp-1214160,Ca2Al(SiO3)4,0.5989
mp-706809,Ca2Al11Si13Ag7O48,1.7357
mp-1227582,Ca2Al2(SiO4)3,0.023600000000000062
mp-743780,Ca2Al2FeSi3HO13,2.5432
mp-540713,Ca2Al2FeSi4BHO16,3.9301
mp-1197530,Ca2Al2FeSi4BO16,1.1658
mp-10444,Ca2Al2O5,3.5638
mp-1227593,Ca2Al2Si(HO4)2,4.4913
mp-1227499,Ca2Al2SiO7,4.315
mp-1196891,Ca2Al2Sn2O9,2.8307
mp-1198782,Ca2Al3H3O8,4.4843
mp-1227590,Ca2Al3O6F,4.5037
mp-1214131,Ca2Al3O8,0.7889999999999999
mp-23915,Ca2Al3Si3HO13,5.036199999999999
mp-1195991,Ca2Al3Si3O13,0.1886000000000001
mp-1194616,Ca2Al4(Si2O7)3,0.32159999999999994
mp-1197037,Ca2Al4Si4H10O21,4.9803000000000015
mp-695251,Ca2Al4Si4H18O25,0.1189
mp-743762,Ca2Al4Si8H14O31,2.8699000000000003
mp-1228237,Ca2Al4Si8O31,0.3438
mp-1200127,Ca2Al4Si8O33,0.1571
mp-1200432,Ca2Al8PbO15,3.9252
mvc-5788,Ca2AlBiO5,2.2977
mp-1102410,Ca2AlClO8,0.1743
mvc-5179,Ca2AlCoO5,0.5238999999999998
mvc-5182,Ca2AlCrO5,2.2706000000000004
mp-29221,Ca2AlF7,7.1413
mvc-5168,Ca2AlFeO5,0.9306
mp-695316,Ca2AlH10BrO8,4.1827
mp-42175,Ca2AlH10ClO8,4.3268
mp-677248,Ca2AlH10IO8,3.7769
mp-643446,Ca2AlH8S2Cl(O6F)2,5.5831
mp-1046989,Ca2AlMoO5,1.6287000000000005
mp-1193801,Ca2AlPbF9,5.775600000000002
mp-1227802,Ca2AlPbOF8,1.8306
mvc-5272,Ca2AlSbO5,2.4005
mvc-5761,Ca2AlSnO5,1.6204999999999998
mvc-5113,Ca2AlVO5,1.5073
mvc-5257,Ca2AlWO5,0.9559999999999996
mp-6929,Ca2As2O7,3.3160000000000003
mp-31010,Ca2As3,0.2304000000000004
mp-557347,Ca2As3Pb3ClO12,3.435
mp-1202522,Ca2As4(Xe3F14)3,2.4552000000000005
mp-581887,Ca2As4Xe5F34,2.834
mp-867113,Ca2AsAu,0.1947000000000001
mp-560595,Ca2AsClO4,3.795
mp-1203188,Ca2AsH4F13,4.8775
mp-28554,Ca2AsI,1.5571000000000002
mp-1019560,Ca2B2O5,4.7085
mp-699451,Ca2B3(HO)13,5.2486
mp-554056,Ca2B5BrO9,5.2036
mp-1182326,Ca2B5ClO10,2.8579
mp-1214176,Ca2B5ClO9,5.2881
mp-24595,Ca2B5H2ClO10,5.0182
mp-1197116,Ca2B5H7O13,5.4849999999999985
mp-1202231,Ca2B5O13,0.1974
mp-542455,Ca2B5Os3,0.005899999999999572
mp-27657,Ca2B6O11,5.638999999999999
mp-706291,Ca2B8H2O15,5.5760999999999985
mp-1214238,Ca2B8O15,0.1823
mp-554263,Ca2BClO3,4.5762
mp-24266,Ca2BHN2,3.0024
mp-23632,Ca2BN2Cl,3.3349999999999995
mp-10233,Ca2BN2F,2.9278
mp-1227534,Ca2Be2P2O9F,0.7269999999999999
mp-1182571,Ca2Be4P3O20,0.16670000000000007
mp-6208,Ca2BeSi2O7,4.9868
mp-677291,Ca2Bi10O17,1.5488
mp-28848,Ca2Bi2O5,2.4957
mp-557070,Ca2BiAsO6,3.2393
mp-867799,Ca2BiAu,0.00020000000000042206
mvc-3973,Ca2BiSbO6,1.1000999999999994
mvc-5011,Ca2BiWO6,1.9657
mp-23009,Ca2BrN,2.4258
mp-6246,Ca2CO3F2,5.14
mp-1182620,Ca2Cd(BrO2)6,0.2713
mp-1182722,Ca2Cd3(Cl5O9)2,0.1527
mp-1093877,Ca2CdGe,0.0040999999999997705
mp-720868,Ca2CdH24(ClO2)6,4.2418999999999984
mp-1078908,Ca2CdP2,1.2921999999999998
mp-569267,Ca2CdSb2,0.3210999999999995
mp-755597,Ca2CeO4,2.161
mvc-15986,Ca2Co3O8,0.5688
mp-31623,Ca2CoO3,0.9185
mvc-13129,Ca2CoRhO6,0.3287
mvc-4133,Ca2CoSbO6,0.6813000000000002
mp-1199429,Ca2CoSi2O7,3.1123
mp-1227451,Ca2CoSi4NiO12,3.0349
mp-558451,Ca2CoTeO6,1.9623
mp-19161,Ca2CoWO6,1.9243
mvc-11377,Ca2Cr2(SiO4)3,0.6471999999999998
mvc-3982,Ca2Cr2O5,0.9981
mvc-3578,Ca2Cr3O8,0.4211999999999998
mp-1045913,Ca2Cr9O13,0.44099999999999984
mp-1214173,Ca2CrFeO5,1.6612000000000005
mp-744193,Ca2CrH2I2O11,2.9479
mp-1214456,Ca2CrH3(IO5)2,1.4373999999999998
mp-782653,Ca2CrO4,1.8761
mvc-5219,Ca2CrO5,0.3353000000000001
mp-795621,Ca2CrO8,0.4243999999999999
mp-1189906,Ca2CrSbO6,2.0326000000000004
mvc-5054,Ca2CrWO6,1.8295000000000003
mp-772813,Ca2Cu2O5,1.0059000000000002
mp-1182601,Ca2Cu2Si3(HO3)4,0.4402999999999997
mp-1202137,Ca2CuAs2(H2O5)2,0.9222
mp-752783,Ca2CuB2(HO)12,0.6073
mp-709019,Ca2CuH6(CO2)6,0.7255
mvc-13711,Ca2CuN2,0.1858
mvc-3984,Ca2CuSbO6,0.3981999999999997
mp-558663,Ca2CuTe4(ClO5)2,0.7174999999999998
mp-1227760,Ca2Dy3Sb3O14,2.5707000000000004
mp-1182314,Ca2Fe2(SiO3)5,1.2104999999999997
mp-25750,Ca2Fe2O5,0.8683000000000001
mp-743675,Ca2Fe2Si5HO15,1.747
mp-743583,Ca2Fe3Sb(PO4)6,2.1864
mp-1204736,Ca2Fe6Se9Cl4O27,1.6559
mp-630511,Ca2FeClO3,0.9904000000000002
mp-1203339,Ca2FeCoO5,0.025499999999999638
mp-1105354,Ca2FeCuSO3,0.6625000000000005
mp-1205964,Ca2FeH6,1.5204999999999995
mp-18783,Ca2FeMoO6,1.1193000000000004
mp-780935,Ca2FeP2(H2O3)4,4.325100000000001
mvc-14247,Ca2FeRhO6,0.056500000000000224
mp-24970,Ca2FeSbO6,2.1517
mvc-5076,Ca2FeWO6,2.3313
mp-695449,Ca2Ga2Bi(B2O7)2,1.6425999999999998
mp-1227514,Ca2Ga2GeO7,3.0443000000000007
mp-16433,Ca2Ga2O5,2.1663
mp-760729,Ca2Ga2Si(HO4)2,3.5112
mp-1103164,Ca2GaClO8,0.11040000000000004
mp-648069,Ca2GaFeO5,0.8106
mp-1214106,Ca2GaSi2O7,0.16720000000000024
mp-1227496,Ca2GdTaO6,3.5491
mp-29273,Ca2Ge7O16,2.8625000000000003
mp-560647,Ca2GeO4,3.6002
mp-540773,Ca2GeS4,2.5134
mp-696490,Ca2H2S2O7,5.0825
mp-698074,Ca2H2S2O9,5.7341
mp-1018656,Ca2H3Br,1.5367999999999995
mp-1207196,Ca2H6Os,2.8583
mp-1079896,Ca2H6Ru,2.5664
mp-24119,Ca2HN,1.6789
mp-27221,Ca2Hf7O16,4.3157000000000005
mp-752413,Ca2HfO4,3.841
mp-1183454,Ca2HgGe,0.2003999999999997
mp-1097426,Ca2HgPd,0.17910000000000004
mp-1096103,Ca2HgPt,0.333
mp-676867,Ca2HoF7,3.2502000000000004
mp-1182422,Ca2I4O13,0.9199
mp-28553,Ca2IN,2.3485
mp-769778,Ca2In2O5,1.3036000000000003
mvc-5822,Ca2IrWO6,1.2130999999999998
mp-1227473,Ca2La2MgTi3O12,2.0641
mp-676459,Ca2LaF7,5.8738
mp-1227683,Ca2LaGa(FeO4)2,1.7492
mp-1227756,Ca2LaGeS4Cl3,2.4359
mp-1106181,Ca2LaSbO6,3.5406999999999997
mp-1193964,Ca2Mg(CO3)3,4.581
mp-1129406,Ca2Mg5(SiO3)8,0.11490000000000022
mp-1196550,Ca2Mg5Si8(HO12)2,4.821999999999999
mp-557662,Ca2Mg5Si8(O11F)2,5.0192000000000005
mp-677029,Ca2MgAl2(SiO4)3,4.8877000000000015
mp-707983,Ca2MgB2H16(CO9)2,4.7695
mp-1227885,Ca2MgFe(CO3)4,3.9747
mp-1227399,Ca2MgFe(SiO3)4,3.4078
mp-1096403,Ca2MgHg,0.2764
mp-23717,Ca2MgP2(H2O5)2,5.3863
mp-1096214,Ca2MgPb,0.00099999999999989
mp-6094,Ca2MgSi2O7,4.467700000000002
mp-1202316,Ca2MgV10(H8O11)4,2.4564
mp-19324,Ca2MgWO6,3.7447
mp-1097680,Ca2MgZn,0.22379999999999975
mp-1182283,Ca2Mn(AsO5)2,0.06279999999999998
mp-1103950,Ca2Mn(PO5)2,0.1958
mvc-12258,Ca2Mn2(SiO4)3,1.041
mp-25008,Ca2Mn2O5,0.6393
mp-744672,Ca2Mn2Si4H6O17,0.16849999999999987
mp-1191515,Ca2Mn2Si4O17,0.38380000000000014
mp-18893,Ca2Mn3O8,1.4427
mp-735626,Ca2Mn3P3H6O17,0.3365
mp-1214361,Ca2Mn3Si3H3O14,0.9069000000000004
mp-1228000,Ca2Mn7Si10H12O35,2.7119999999999997
mp-745107,Ca2MnAl2Si3HO13,1.1021999999999994
mp-1200446,Ca2MnAl2Si4BO15,1.0911
mp-25700,Ca2MnAs2(H2O5)2,2.495
mp-1227867,Ca2MnFeSi4(HO3)5,1.7069000000000003
mp-1047534,Ca2MnNb2O8,2.7039
mp-1227519,Ca2MnNbO6,0.14080000000000004
mvc-10906,Ca2MnNiO6,0.0017000000000000348
mp-1227324,Ca2MnO3,2.0661
mp-19050,Ca2MnO4,0.371
mp-25556,Ca2MnP2(H2O5)2,4.1295
mp-1227483,Ca2MnSbO6,0.3769999999999998
mp-1214268,Ca2MnSi2,0.1904999999999999
mp-19108,Ca2MnWO6,2.3282000000000003
mvc-3999,Ca2Mo2O5,1.3222999999999994
mp-1042855,Ca2Mo3O8,1.6638000000000002
mvc-4994,Ca2MoWO6,2.1764
mp-2686,Ca2N,0.017100000000000115
mp-22936,Ca2NCl,2.3688
mp-33588,Ca2NF,1.6866000000000003
mp-1047021,Ca2Nb2CoO8,2.6971
mvc-12286,Ca2Nb2CoO9,0.9805
mp-1047030,Ca2Nb2CrO8,1.6063999999999998
mp-1043833,Ca2Nb2CuO8,0.41090000000000027
mp-1047759,Ca2Nb2FeO8,2.5871
mp-1047012,Ca2Nb2NiO8,3.0819
mp-13979,Ca2Nb2O7,3.1000999999999994
mp-1042909,Ca2Nb2SnO8,2.2318
mp-1214115,Ca2NbCrO6,2.3319
mp-1214121,Ca2NbFeO6,2.0567
mp-560645,Ca2NbInO6,3.4348
mp-1029832,Ca2NbN3,1.7961
mp-1227616,Ca2Nd2MnNiO8,0.024800000000000374
mp-40206,Ca2Nd2Nb3FeO14,2.2485
mp-1214181,Ca2Nd3Si3O13,0.013900000000000023
mp-675896,Ca2NdF7,5.2616
mvc-15993,Ca2Ni3O8,0.9315000000000002
mp-510001,Ca2Ni7P4,0.029600000000000293
mvc-4123,Ca2NiSbO6,0.1011000000000002
mp-19114,Ca2NiWO6,3.2941
mp-1120811,Ca2O3,0.32220000000000004
mp-706426,Ca2P2H4O9,5.0576
mp-554174,Ca2P2H8O11,4.8542999999999985
mp-1200799,Ca2P2O11,0.9723
mp-17922,Ca2P2O7,5.5138
mp-1214153,Ca2P3Pb3ClO12,4.016299999999998
mp-1229244,Ca2P4H11NO18,2.1096
mp-758337,Ca2P6O17,5.3661
mp-1093621,Ca2PAu,0.6678999999999999
mp-554081,Ca2PClO4,5.3708
mp-1093676,Ca2PH,0.9648
mp-23040,Ca2PI,1.7000000000000002
mp-8977,Ca2PN3,2.6026000000000007
mp-30478,Ca2Pb,0.00480000000000036
mp-21137,Ca2PbO4,1.4819999999999998
mp-1227517,Ca2Pr2MnNiO8,1.2661999999999995
mp-1183496,Ca2Pr2O5,1.3191000000000002
mp-1227629,Ca2Pr4(Mo2O7)3,0.2353000000000005
mp-8710,Ca2Pt3O8,1.1236000000000002
mp-1196095,Ca2S2O9,1.0804
mp-1214318,Ca2S3(NO6)2,0.007500000000000062
mvc-3799,Ca2Sb2O5,2.0209
mp-16280,Ca2Sb2O7,1.7338000000000005
mp-29284,Ca2Sb2S5,1.4826
mp-861950,Ca2SbAu,0.19599999999999973
mvc-4146,Ca2SbMoO6,0.8235999999999999
mvc-5024,Ca2SbWO6,1.6194999999999995
mp-1214125,Ca2ScNbO6,3.1458
mp-1105395,Ca2ScOsO6,0.08420000000000005
mp-1214081,Ca2ScTaO6,3.7273
mp-28535,Ca2Se3O8,3.4251
mp-1227649,Ca2Se4O11,0.584
mp-1204013,Ca2Si3O11,0.017
mp-1214269,Ca2Si3Pb3O11,3.2681
mp-504590,Ca2Si3PbO9,4.371
mp-28922,Ca2Si5N8,3.3482000000000003
mp-752851,Ca2SiB2O7,5.735700000000001
mp-850516,Ca2SiB5H5O14,5.5834
mp-867937,Ca2SiB5O14,0.24060000000000006
mp-556364,Ca2SiCl2O3,5.1049
mp-541431,Ca2SiH2O5,4.6543
mp-4481,Ca2SiO4,4.199400000000002
mp-1201156,Ca2SiO4F,0.3509
mp-1194183,Ca2SiSe4,2.4663000000000004
mvc-3803,Ca2Sn2O5,1.4125000000000003
mvc-15350,Ca2Sn3O8,2.7111999999999994
mp-1100346,Ca2Sn3S8,1.039
mp-866229,Ca2SnHg,0.13480000000000025
mp-1029915,Ca2SnN2,0.007899999999999352
mp-4747,Ca2SnO4,2.7136000000000005
mvc-5966,Ca2SnWO6,1.9675
mp-1046181,Ca2Ta2CoO8,2.733
mp-1046171,Ca2Ta2CrO8,2.1716
mvc-2427,Ca2Ta2CuO8,0.5667
mp-1046246,Ca2Ta2FeO8,3.4090000000000003
mp-1046172,Ca2Ta2MnO8,3.3713
mp-1046168,Ca2Ta2NiO8,3.4551000000000003
mp-680380,Ca2Ta2O7,3.4128
mp-1045940,Ca2Ta2SnO8,2.8545
mp-1046185,Ca2Ta2VO8,1.1227
mp-1046286,Ca2Ta2WO8,0.17470000000000052
mvc-4204,Ca2TaAgO6,0.5219000000000003
mvc-4159,Ca2TaBiO6,2.1396000000000006
mvc-4372,Ca2TaCoO6,0.4615999999999998
mp-1214103,Ca2TaCrO6,2.6466000000000003
mvc-4371,Ca2TaFeO6,1.8862
mp-1214135,Ca2TaInO6,3.8543
mp-572324,Ca2TaMnO6,0.4552000000000001
mvc-4373,Ca2TaMoO6,1.572699999999999
mp-1029773,Ca2TaN3,1.9592000000000005
mp-1043434,Ca2TaNb2O8,0.19040000000000035
mvc-3970,Ca2TaSbO6,1.2435999999999998
mvc-4168,Ca2TaSnO6,0.014299999999999537
mvc-4357,Ca2TaVO6,0.3210999999999995
mvc-5018,Ca2TaWO6,2.2679
mvc-4727,Ca2TeO5,0.07160000000000011
mp-1047738,Ca2TeWO6,1.4917000000000002
mp-555528,Ca2Th(Si2O5)4,4.9888
mp-1227370,Ca2Ti2SiGeO10,2.7796
mvc-2955,Ca2Ti3O8,2.7898999999999994
mp-1227907,Ca2Ti5(Bi2O9)2,2.3566
mp-776452,Ca2Ti6N2O11,1.8035
mp-1227381,Ca2TiAlSi2O9F,3.2635000000000005
mp-1227758,Ca2TiCrO6,0.8683000000000005
mp-1227706,Ca2TiMnO6,1.3154000000000003
mp-1042259,Ca2TiNb2O8,0.0472999999999999
mp-1096860,Ca2TiO4,1.8864
mp-1227786,Ca2TiSi2SnO10,3.0967
mp-9413,Ca2TiSiO6,2.3633999999999995
mvc-5090,Ca2TiWO6,1.2272000000000007
mp-861057,Ca2Tl2O5,0.8173999999999997
mp-1214117,Ca2TmRuO6,0.2603
mp-17956,Ca2UO5,2.135
mvc-3985,Ca2V2O5,1.0142000000000009
mp-32434,Ca2V2O7,3.0528
mp-1194234,Ca2V2O9,1.6291
mp-1227801,Ca2V2PbO8,3.2085000000000004
mp-743702,Ca2V3Co2AgO12,1.9169
mp-705890,Ca2V3Ni2AgO12,2.037
mvc-14765,Ca2V3O8,1.4929
mp-567358,Ca2VBiO6,3.0979
mp-566768,Ca2VClO4,3.4607
mp-705898,Ca2VFe4BiO12,1.1137
mvc-5772,Ca2VIrO6,0.5141999999999998
mp-1227834,Ca2VMoO6,0.30989999999999984
mp-17892,Ca2VN3,1.6547
mp-1202810,Ca2VP3O11,2.2281
mvc-4111,Ca2VSbO6,0.3445999999999998
mvc-5055,Ca2VWO6,1.2640000000000002
mvc-3993,Ca2W2O5,1.7084
mvc-15493,Ca2W3O8,0.5630999999999995
mp-772107,Ca2WO5,3.213
mp-1182411,Ca2Y2Si2CO16,0.048599999999999983
mp-1197862,Ca2Y2Si4CO16,0.2530999999999999
mp-720719,Ca2Y2Si4H2CO16,5.1278
mp-1182042,Ca2Y3Si3O13,0.002699999999999925
mp-562728,Ca2YAs(WO6)2,4.0029
mvc-5445,Ca2YBiO5,2.4942
mp-1047496,Ca2YCoO5,0.6059999999999999
mp-1047503,Ca2YCrO5,2.2051
mvc-5240,Ca2YCuO5,0.0743999999999998
mp-743862,Ca2YFe4SbO12,1.6679999999999997
mp-1047527,Ca2YFeO5,0.9384
mp-1047494,Ca2YMnO5,0.2881
mvc-5990,Ca2YMoO5,1.6567999999999996
mvc-6159,Ca2YSbO5,2.8750000000000004
mp-1118314,Ca2YSnO5,2.4817
mp-1047440,Ca2YVO5,1.5755
mvc-5817,Ca2YWO5,1.1311999999999998
mp-571306,Ca2Zn2CuP3,0.2726000000000006
mp-1200437,Ca2Zn3Si3PbO12,3.7124
mp-1200089,Ca2Zn4As4O17,0.05130000000000001
mp-1214401,Ca2ZnAs2(H2O5)2,3.3532
mp-1227662,Ca2ZnFe(SiO3)4,3.0040000000000004
mp-1096151,Ca2ZnGe,0.0021999999999997573
mp-18596,Ca2ZnGe2O7,3.0488
mp-8818,Ca2ZnN2,0.7618
mp-1183470,Ca2ZnPb,0.1868000000000003
mp-1097116,Ca2ZnPd,0.09579999999999987
mp-6227,Ca2ZnSi2O7,4.0553
mp-1183468,Ca2ZnSn,0.02429999999999932
mp-560339,Ca2Zr(SiO3)4,4.8495
mp-667369,Ca2Zr5Ti2O16,3.0873
mp-1227737,Ca2ZrTi(GeO5)2,3.043200000000001
mp-1227799,Ca2ZrTi(SiO5)2,3.1781
mp-1205338,Ca3(AlAs2)2,1.1162000000000003
mp-29820,Ca3(AlN2)2,2.1954
mp-1205337,Ca3(AlP2)2,1.2466
mp-530449,Ca3(AsO4)2,3.6298
mp-1200693,Ca3(AsO9)2,0.0011999999999999786
mp-1214604,Ca3(B3O10)2,0.15720000000000006
mp-531265,Ca3(BN2)2,2.4178
mp-3575,Ca3(BO3)2,4.8224
mvc-10858,Ca3(CoN2)2,0.4351
mvc-11351,Ca3(CrN3)2,0.01730000000000009
mvc-11334,Ca3(CuO3)2,0.03699999999999992
mp-571162,Ca3(GaN2)2,1.9139
mp-1189986,Ca3(GaP2)2,1.0868000000000002
mp-18504,Ca3(GeAs2)2,0.6160999999999999
mp-17817,Ca3(GeP2)2,0.7361999999999997
mp-675266,Ca3(HO3)2,2.9049
mp-650513,Ca3(InAs2)2,0.005199999999999871
mp-1197377,Ca3(PO4)2,4.9116
mp-1182561,Ca3(Si3O11)2,0.8373999999999999
mp-1195188,Ca3(Si4P7)2,0.9058000000000002
mp-540696,Ca3(SiAs2)2,0.823
mp-1194866,Ca3(SiP2)2,0.8744000000000005
mp-1229316,Ca33In4P28Pb3O112,4.0615000000000006
mp-568774,Ca36Sn23,0.06709999999999994
mp-1214222,Ca3Al2(GeO4)3,3.5137
mp-23882,Ca3Al2(HO)12,4.1187000000000005
mp-6008,Ca3Al2(SiO4)3,4.992699999999999
mp-1228003,Ca3Al2(SiO6)2,0.014699999999999937
mp-23872,Ca3Al2H6S(OF)8,5.7404
mp-1182533,Ca3Al2O12,0.6445000000000001
mp-12147,Ca3Al2O6,4.2749
mp-1198254,Ca3Al2S(OF)8,0.6859999999999999
mp-1203850,Ca3Al2SO16,0.25630000000000003
mp-1029921,Ca3Al3N5,2.557300000000001
mp-1199096,Ca3Al4CoO10,2.5179
mp-677067,Ca3Al4Si8(ClO12)2,3.608800000000001
mp-1227806,Ca3Al4SiO12,0.01350000000000007
mp-557955,Ca3Al4ZnO10,3.5447
mp-11430,Ca3Al7Ag2,0.017500000000000068
mp-10876,Ca3Al7Cu2,0.05590000000000028
mp-17186,Ca3AlAs3,0.7296000000000005
mp-1227902,Ca3AlFe(SiO4)3,2.948
mp-29596,Ca3AlN3,2.4573
mp-18300,Ca3AlSb3,0.2523999999999997
mp-1041855,Ca3As4W3O16,1.0980000000000003
mp-27294,Ca3AsBr3,1.6656999999999995
mp-28069,Ca3AsCl3,1.8384
mp-1214087,Ca3AsI3,1.9918000000000005
mp-4192,Ca3AsN,0.8940000000000001
mp-1013642,Ca3AsP,0.1943000000000001
mp-1182037,Ca3B4(H4O)3,4.6065
mp-1182639,Ca3B5Cl2O21,0.005699999999999997
mp-1215119,Ca3B5W8Cl2O13,0.6333000000000002
mp-707129,Ca3B6(H4O5)4,5.3889
mp-1214049,Ca3BCBr2N,2.2256000000000005
mp-649453,Ca3BCNCl2,2.1064000000000003
mp-1195197,Ca3BI3N2,3.5155000000000003
mp-30315,Ca3BN3,0.5682
mp-707876,Ca3Be2P4(HO2)10,5.1849
mp-699464,Ca3Be2Si3(HO6)2,5.0047
mvc-13034,Ca3Bi2(AsO6)2,0.18200000000000016
mp-31149,Ca3BiN,0.3687000000000005
mp-1013558,Ca3BiP,0.07879999999999976
mp-28160,Ca3C3Cl2,1.2768000000000002
mp-1227791,Ca3Cd5(P2O7)4,3.3116000000000003
mp-755287,Ca3CdO4,2.5211
mp-622557,Ca3Co(SeO3)4,2.9623
mvc-4409,Ca3Co2(GeO4)3,1.2221000000000002
mvc-14984,Ca3Co2(RhO6)2,0.14129999999999998
mvc-4580,Ca3Co2(Si2O7)2,1.2569
mp-1163930,Ca3Co2(SiO4)3,1.1039999999999996
mvc-12889,Ca3Co2(TeO6)2,1.0231
mvc-13348,Ca3Co2(WO6)2,0.9855999999999998
mvc-3670,Ca3Co2O7,0.2079
mp-1047370,Ca3Co3(AsO4)4,2.467
mp-1096877,Ca3Co4O9,0.6784000000000001
mp-1048585,Ca3Cr2(GeO4)3,2.9977000000000005
mvc-4549,Ca3Cr2(Si2O7)2,2.2836
mp-19599,Ca3Cr2(SiO4)3,3.2229
mvc-3681,Ca3Cr2O7,0.9913000000000004
mp-1047487,Ca3Cr3(AsO4)4,1.8288
mp-566617,Ca3Cr3(PO4)4,3.2416
mvc-8026,Ca3Cr6(FeO6)4,0.01100000000000012
mvc-4220,Ca3Cu2(GeO4)3,0.4249999999999998
mvc-4083,Ca3Cu2(Si2O7)2,0.2046000000000001
mp-1163936,Ca3Cu2(SiO4)3,0.3128000000000002
mp-1227859,Ca3Cu2Ni(PO4)4,0.6023999999999998
mp-555937,Ca3Cu3(AsO4)4,0.5670999999999999
mp-6118,Ca3Cu3(PO4)4,0.6006
mvc-13059,Ca3Cu6(AsO4)8,0.059799999999999964
mvc-11883,Ca3Cu6(PO4)8,0.046599999999999975
mp-1227740,Ca3Er2(SnS4)3,0.7393000000000001
mp-41109,Ca3Er3Ge2BO13,3.6346
mp-640879,Ca3Fe2(GeO4)3,2.3844
mvc-12764,Ca3Fe2(MoO6)2,1.7666999999999995
mp-565716,Ca3Fe2(SeO3)6,2.3711
mvc-4550,Ca3Fe2(Si2O7)2,2.2007000000000003
mp-19535,Ca3Fe2(SiO4)3,2.6134000000000004
mvc-13104,Ca3Fe2(WO6)2,2.1658
mp-1214034,Ca3Fe2Br2O5,0.8658999999999999
mp-566329,Ca3Fe2Cl2O5,1.0816
mvc-3672,Ca3Fe2O7,0.01909999999999989