task_id,composition,band_gap
mp-7257,K3NaP2(O3F)2,4.5042
mp-1212547,K3NaP2H8O11,4.5327
mp-1202013,K3NaP2O11,0.4794
mp-1224179,K3NaP4(H2O7)2,5.2919
mp-541393,K3NaRe2O9,1.8164
mp-1224587,K3NaSi6(SnO10)2,0.4897999999999999
mp-17850,K3NaTh2O6,3.6676
mp-557407,K3NaUC3O11,2.1423
mp-559516,K3Nb(SO4)4,2.9435
mp-581115,K3Nb2Ag3S8,1.9434
mp-581419,K3Nb2Cu3S8,1.8673
mp-6168,K3Nb2CuSe12,1.2553
mp-680410,K3Nb2S11,1.4262
mp-28428,K3Nb2Se11,1.0590000000000002
mp-557711,K3Nb3(BO6)2,2.3808
mp-541626,K3Nb3Ge2O13,2.3239
mp-559346,K3Nb3Si2O13,2.1454
mp-1224474,K3Nb4Mo4(PO4)12,0.018200000000000216
mp-1211937,K3Nb6SBr17,0.6542000000000001
mp-579728,K3Nb6VO19,2.3385
mp-650928,K3Nb7O19,2.1043000000000003
mp-560208,K3NbAs2O9,3.1394
mp-696651,K3NbHOF7,4.1033
mp-14175,K3NbO8,2.5984000000000003
mp-554572,K3NbP2O9,2.8040000000000003
mp-18383,K3NbS4,2.3437
mp-17283,K3NbSe4,1.8249
mp-559059,K3Nd(AsS4)2,1.6896
mp-1211700,K3Nd(BO3)2,3.3672000000000004
mp-17187,K3Nd(PO4)2,4.919499999999998
mp-542974,K3Nd(PS4)2,2.4434
mp-6453,K3Nd(Si2O5)3,4.1357
mp-649470,K3Nd2(NO3)9,3.4785000000000004
mp-555172,K3Nd3(PS4)4,2.4204
mp-1223715,K3Nd3Br10,0.08009999999999984
mp-676864,K3Nd3I10,0.10299999999999976
mp-1110926,K3NdBr6,3.7704
mp-1110882,K3NdCl6,4.488
mp-1110853,K3NdF6,5.4782
mp-554058,K3NdH6(C2O5)3,3.2029
mp-1110956,K3NdI6,3.1746
mp-8614,K3NdSi2O7,3.5564
mp-559608,K3NdSi7O17,4.713500000000002
mp-19584,K3NdV2O8,3.6332
mp-1223825,K3Ni(NO2)5,1.9317
mp-560449,K3Ni2F7,4.6238
mp-541392,K3NiO2,1.5665
mp-770033,K3NiPCO7,3.7622
mp-557615,K3Np(H3O4)2,1.4329
mp-1195299,K3Np(HO3)2,1.389
mp-616718,K3Np(MoO5)2,0.3597000000000001
mp-9637,K3NpO2F5,0.2862000000000001
mp-7897,K3P,0.2126
mp-579533,K3P(W3O10)4,3.238
mp-1568,K3P11,1.93
mp-866660,K3P2AuSe8,1.2085
mp-684767,K3P2H(O3F)2,4.9848
mp-1212268,K3P2H10O7,0.9286
mp-696225,K3P2H7O10,4.8991
mp-707908,K3P3H4O11,5.1705
mp-1225883,K3P3O10,0.00219999999999998
mp-707172,K3P4H5O14,5.3502
mp-568011,K3P5RuSe10,0.9415
mp-14565,K3P6N11,3.9959
mp-680247,K3P6S6N7,3.5462
mp-1223624,K3PO3F2,4.5577999999999985
mp-557753,K3PO4,4.0019
mp-17989,K3PS4,2.7739000000000003
mp-1180864,K3PS4O,2.4477
mp-29947,K3PSe16,1.0901
mp-31313,K3PSe4,1.8282
mp-1192352,K3Pr(PO4)2,4.8612
mp-649608,K3Pr2(NO3)9,3.4494
mp-1110925,K3PrBr6,3.7651
mp-1110881,K3PrCl6,4.4737
mp-1110852,K3PrF6,5.399699999999998
mp-1110955,K3PrI6,3.174
mp-1200645,K3Pt2(SO4)6,0.0005999999999999893
mp-1237009,K3Pu(H3O4)2,0.9475
mp-510006,K3Pu(PS4)2,0.06440000000000001
mp-1223703,K3Rb3Zn4Sn3Se13,1.4238
mp-1224636,K3Rb5Te4H24(SO10)4,3.3091
mp-540813,K3ReC4(N2O)2,2.3828
mp-557125,K3ReClF6,1.814
mp-1224026,K3ReMoO8,2.8316
mp-28837,K3RhCl6,1.7025
mp-1111856,K3RhF6,2.0223
mp-1197439,K3S3NO11,0.05489999999999995
mp-1211900,K3SI,1.0372
mp-557035,K3SO4F,5.2345
mp-14017,K3Sb,0.3936000000000001
mp-9273,K3Sb2Au3,1.1063
mp-554645,K3Sb2N2O6F7,2.9622
mp-12156,K3Sb5O14,1.1985
mp-559272,K3Sb7(SO3)3,1.834
mp-1110924,K3SbBr6,2.8539
mp-1110880,K3SbCl6,3.3444000000000003
mp-1110845,K3SbF6,3.8451
mp-1110954,K3SbI6,2.3534
mp-555137,K3SbN3(O3F)3,3.0785
mp-17250,K3SbO3,3.2348
mp-10543,K3SbO4,1.8325
mp-756642,K3SbPCO7,0.5536999999999996
mp-1194266,K3SbS3,2.6882
mp-9781,K3SbS4,2.1699
mp-17538,K3SbSe3,2.2931000000000004
mp-8704,K3SbSe4,1.4219000000000002
mp-5626,K3SbTe3,1.7109999999999999
mp-698633,K3Sc(HO)6,2.0949
mp-567044,K3Sc(MoO4)3,3.9435
mp-17035,K3Sc(PO4)2,4.2975
mp-1110923,K3ScBr6,3.2221
mp-1110879,K3ScCl6,4.0299999999999985
mp-1111079,K3ScF6,6.162999999999999
mp-1111693,K3ScI6,2.3346
mp-557577,K3ScSi2O7,3.6385
mp-1104363,K3ScV2O8,3.097
mp-9405,K3SeO4F,3.8658
mp-1212247,K3Si5H2O11,0.08260000000000023
mp-1212001,K3Si6H6N11,3.1065
mp-13859,K3SiF7,5.9196
mp-6872,K3SiN(OF2)3,3.3592
mp-7657,K3SiTe3,1.7139000000000002
mp-560964,K3Sm(AsS4)2,1.6795000000000002
mp-559574,K3Sm(BO3)2,3.4183
mp-18019,K3Sm(PO4)2,4.9728
mp-1213357,K3Sm2(NO3)9,3.5988
mp-1224412,K3Sm4(CuTe2)5,0.4603999999999999
mp-1110878,K3SmCl6,4.5123
mp-1197963,K3SmGa3B12S12I,2.4261
mp-1080840,K3SmN6,0.31920000000000004
mp-1195475,K3SmSi2O7,3.6119
mp-1211845,K3Sn2P5S18,1.2825999999999995
mp-676501,K3Sn2S3BrO12,3.4126000000000003
mp-1224197,K3Sn2S3BrO3,0.8703999999999996
mp-42091,K3Sn2S3ClO12,3.9354
mp-1224128,K3Sn2S3ClO3,0.8805000000000001
mp-18500,K3Sn4Au,0.4004000000000003
mp-557665,K3Sn5Cl3F10,3.2914000000000003
mp-1196323,K3SnC7O16,0.5491
mp-696683,K3SnHF8,5.1576
mp-568970,K3SnIrCl8,1.5882
mp-754251,K3SnPCO7,3.4805
mp-1223733,K3SnSb3,0.20219999999999996
mp-541875,K3SnSe3,1.6275999999999995
mp-540619,K3SnTe3,1.2297000000000002
mp-772777,K3SrPCO7,4.153499999999998
mp-573202,K3Ta2Ag3S8,2.2936
mp-582161,K3Ta2Ag3Se8,1.9261
mp-1197797,K3Ta2Cu3S8,2.1985
mp-680400,K3Ta2S11,1.6765
mp-9870,K3Ta3(BO6)2,2.6687
mp-16855,K3Ta3Si2O13,2.9726
mp-866663,K3TaF8,3.8153
mp-1224225,K3TaNbCu3S8,1.8577
mp-1198208,K3TaO2F7,0.2367000000000001
mp-4690,K3TaO8,2.9894
mp-18148,K3TaS4,2.7558
mp-1211631,K3Tb(BO3)2,3.2042
mp-1110877,K3TbCl6,4.5486
mp-1211662,K3TbF6,6.4565
mp-16594,K3TbSi2O7,3.688
mp-759928,K3TbSi3(HO5)2,4.603999999999999
mp-1200129,K3Te(PO7)2,0.0018000000000000238
mp-1182694,K3TeP3O17,0.018199999999999997
mp-638086,K3Th2Cu3S7,1.4308999999999994
mp-560239,K3Ti3(PO4)5,2.5785
mp-1205449,K3TiCl6,0.06309999999999992
mp-1238434,K3TiFeH4S4O19,0.2654
mp-6305,K3TiO4F3,2.536
mp-1198399,K3Tl(Cl3O)2,0.08739999999999992
mp-1111161,K3TlBr6,1.406
mp-1111328,K3TlCl6,2.3522
mp-27525,K3TlF6,3.7843
mp-1111318,K3TlI6,0.4794000000000001
mp-1192398,K3Tm(PO4)2,5.1398
mp-1211949,K3TmCl6,5.0674
mp-1211645,K3TmF6,6.4933999999999985
mp-16598,K3TmSi2O7,3.755500000000001
mp-1225339,K3U2I7O26,1.0834
mp-558320,K3U3Si2O13,0.5497000000000005
mp-1204957,K3UC5O17,0.11360000000000015
mp-13897,K3UF7,0.7939999999999996
mp-1212323,K3UH5C5O12,1.6859000000000002
mp-605461,K3UH6C5SNO13,1.6805
mp-6785,K3UO2F5,2.7139
mp-579315,K3V(PO4)2,1.9769
mp-565750,K3V(SO)2,2.4361
mp-976313,K3V(SO5)2,3.4426
mp-1022965,K3V2(PO4)3,1.7942000000000002
mp-1181810,K3V2(S2O9)2,1.3929
mp-1200488,K3V2O12,0.0764
mp-1097033,K3V2P2O8F3,2.1932
mp-567009,K3V3(AsO7)2,2.8636
mp-622115,K3V3(BiO6)2,2.9294
mp-18761,K3V3O8,1.8032
mp-540787,K3V5O14,2.3325
mp-1197782,K3V5Te4(HO3)8,2.2165
mp-705009,K3VC5N5O,2.8885
mp-566999,K3VCO8,2.4059
mp-565833,K3VH2(CO5)2,2.2312
mp-743964,K3VH6C4O13,2.9186
mp-1197826,K3VMo3H4O15,2.9478
mp-639787,K3VO4,4.0413000000000014
mp-1211704,K3VO8,1.5313
mp-770048,K3VPCO7,2.3245
mp-3529,K3VS4,1.5829999999999995
mp-565879,K3VSO3,3.1402
mp-1147776,K3VSe4,1.3573
mp-1224236,K3W2(O2F3)2,1.3384
mp-27506,K3W2Cl9,1.3375
mp-1029938,K3W2N5,2.1497
mp-651173,K3WC4N4OF,3.1807
mp-555403,K3WF6,2.6188
mp-565818,K3WS3ClO,2.7769999999999997
mp-555495,K3Y(BO3)2,3.1813
mp-642313,K3Y3(BO3)4,4.1596
mp-1110922,K3YBr6,3.801
mp-1211890,K3YCl6,5.0483
mp-13230,K3YF6,6.4613
mp-1110953,K3YI6,3.1873
mp-1189218,K3YN6,0.0121
mp-1198426,K3YSi3O10,0.6117000000000001
mp-1213171,K3YbSe6,0.06840000000000003
mp-1019786,K3Zn(BO2)5,4.2633
mp-1190451,K3Zn2Cl7,3.8966
mp-3125,K3Zn2F7,4.0269
mp-1224561,K3Zn4As3O17,0.16920000000000002
mp-643270,K3ZnH5,3.7101
mp-559309,K3ZnNCl4O3,3.3079
mp-772848,K3ZnPCO7,3.8609
mp-1212215,K3Zr2NF12,2.9824
mp-1211985,K3Zr2S(O2F3)3,0.3871
mp-560729,K3Zr4Ag2F23,0.7016999999999999
mp-1211761,K3Zr6BeCl15,0.9287
mp-1199305,K3ZrC3O13,0.15289999999999992
mp-1198105,K3ZrC7O16,0.9097
mp-696078,K3ZrH2S(OF)5,5.1147
mp-680747,K4(BSe)9,2.2415000000000003
mp-867980,K4(S2O3)5,0.22750000000000006
mp-640333,K49Tl108,0.049900000000000055
mp-1181173,K4Ag2Sn3S9O2,0.14549999999999996
mp-23149,K4Al3Si3ClO12,4.578799999999998
mp-1204061,K4As2Se5,1.2184
mp-557941,K4AsH5S3O16,3.9373
mp-29341,K4Au6S5,1.5841999999999998
mp-1197401,K4B10H4O19,5.1222
mp-557584,K4Ba(GeO3)3,3.2293
mp-558347,K4Ba(SiO3)3,4.2288
mp-558121,K4Ba(VS4)2,1.5514
mp-1199499,K4Ba2B14H16O33,4.914300000000001
mp-695895,K4Ba2N7O16,0.3796
mp-1200379,K4Ba2Na4Ti8Mn(Si8O33)2,0.016000000000000014
mp-1213587,K4Ba2Na4Ti8MnSi16(W4O29)2,0.04060000000000042
mp-1224063,K4Ba2SnAs4,0.4965
mp-1224198,K4Ba2SnBi4,0.09979999999999987
mp-1224114,K4Ba2SnP4,0.7978999999999998
mp-1224100,K4Ba2SnSb4,0.3923000000000001
mp-677011,K4BaTa6(Si2O13)2,2.8469999999999995
mp-1224564,K4BaTi6S20O,1.2122000000000002
mp-1223997,K4BaU3O12,2.0589000000000004
mp-1203528,K4BaV6O18,3.0162
mp-28158,K4Be3O5,3.2092
mp-29584,K4BeAs2,0.8851000000000001
mp-9872,K4BeP2,1.1402
mp-29542,K4Bi2O5,2.6155
mp-28627,K4Br2O,0.9912
mp-1211856,K4C2O9,0.22629999999999995
mp-572537,K4CO4,2.9688
mp-675766,K4CO6,0.1183
mp-1202514,K4Ca(SiO3)3,4.261
mp-1147522,K4Ca(WO4)3,2.4672
mp-1195727,K4CaU(Si2O7)2,2.066
mp-16137,K4CaU3O12,2.1025
mp-1202998,K4Cd(P3O10)2,0.2281
mp-1204199,K4Cd2S4O19,0.6477999999999999
mp-29585,K4CdAs2,0.6093999999999999
mp-23392,K4CdCl6,3.9837
mp-28302,K4CdP2,0.8246
mp-1211822,K4Co(MoO4)3,2.818
mp-770883,K4Co2O5,0.8294999999999999
mp-1211908,K4CoP6O25,0.058300000000000025
mp-567151,K4Cr(NO5)2,3.0783
mp-1211715,K4CrO4,1.8253
mp-1181849,K4Cu(IO10)2,0.0013000000000000234
mp-707485,K4Cu3As4(HO8)2,0.5323
mp-1228096,K4Cu4Sn7,0.7236000000000002
mp-723175,K4CuP6(H4O11)2,0.5959000000000001
mp-698475,K4ErP6H6ClO21,4.8671
mp-1180828,K4Eu(PS4)2,0.6659999999999999
mp-1194232,K4Eu(PSe4)2,0.13280000000000006
mp-566574,K4Fe2O5,2.217
mp-1197093,K4Ga8P8O32F,0.3938999999999999
mp-42089,K4Gd2C3O9F4,2.7175
mp-1195305,K4Ge(PS3)4,2.1158
mp-1195433,K4Ge(PSe3)4,1.4017000000000002
mp-1194543,K4Ge(SeO)4,1.4062
mp-30962,K4Ge9O20,3.0665
mp-720197,K4GeH4N2O3,2.4271000000000003
mp-17015,K4GeO4,2.7837
mp-698312,K4H4PtC6S2(NO6)2,0.04559999999999997
mp-735597,K4H4WC8(N4O)2,3.0212
mp-542043,K4H6C2O9,4.1658
mp-1195712,K4H6W2S2O9,4.1037
mp-743880,K4Hf3Mn(PO4)6,3.763100000000001
mp-581963,K4Hf3Te17,0.9113000000000002
mp-974482,K4Hf5O12,3.2680000000000002
mp-1204255,K4HfC8O21,0.5307000000000001
mp-1211649,K4HfO4,2.9059
mp-29484,K4HgAs2,0.6976000000000001
mp-8753,K4HgP2,0.9356
mp-768368,K4I2O,1.2568
mp-27764,K4I2O9,1.9183
mp-553982,K4In2Si8O21,3.8038
mp-8429,K4IrO4,0.4266000000000001
mp-763590,K4Li3(FeO4)2,0.14089999999999994
mp-762647,K4Li3Mn2O8,0.5337000000000001
mp-849406,K4Li3Nb18P12(WO42)2,0.9309000000000004
mp-763502,K4Li5(FeO4)2,0.013999999999999957
mp-1178153,K4Li5Cr2O8,0.9598
mp-765738,K4Li5Mn2O8,0.5408
mp-766028,K4Li5Ti8(PO5)8,0.005599999999999827
mp-766140,K4Li7Mn2O8,0.1229
mp-709186,K4LiH3(SO4)4,5.394
mp-558483,K4LiIO6,2.0858
mp-1211857,K4Mg(MoO4)3,4.3032
mp-1194610,K4Mg(WO4)3,4.6063
mp-686527,K4Mg2H16S4O23,3.6738
mp-560965,K4Mn(AsS4)2,1.0475
mp-566918,K4Mn(MoO4)3,3.0225000000000004
mp-698687,K4Mn2H16S4O23,3.4
mp-1199803,K4Mn2S4O19,0.8158
mp-561377,K4Mn3F12,0.84
mp-1201463,K4Mn3P6(HO3)8,3.763
mp-29637,K4MnBr6,2.3093
mp-27901,K4MnCl6,2.4284
mp-746688,K4MnH6(S2O9)2,4.6259
mp-616059,K4MnMo4O15,3.0885
mp-1211757,K4MnO4,0.8519999999999999
mp-1203753,K4Mo2H6S2O9,3.4073
mp-735596,K4Mo3H4O17,2.4422
mp-1204212,K4Mo6PtO26,0.27069999999999994
mp-1224595,K4Mo6Se25O,0.7650999999999999
mp-1225158,K4Mo6Se2O33,0.5842
mp-705070,K4MoC5N6O,2.4381
mp-1211821,K4MoO5,3.1594
mp-705676,K4MoO8,0.5692999999999999
mp-565884,K4MoS3O14,2.7201
mp-1223817,K4MoWO8,4.4301
mp-752863,K4N2O5,0.08139999999999993
mp-542686,K4Na2(Si2O5)3,4.1796
mp-743629,K4Na2FeH3F12,4.0785
mp-757218,K4Na2H18Pd(IO10)2,1.6804
mp-557698,K4Na2TeO6,2.185
mp-1076205,K4Na4Mo3(WO4)5,0.40790000000000015
mp-1099601,K4Na4Mo3W5O24,0.19229999999999992
mp-1099727,K4Na4Mo5(WO8)3,0.5893999999999999
mp-1076890,K4Na4Mo5W3O20,0.5413999999999999
mp-1076754,K4Na4Mo7WO20,0.4502999999999999
mp-1099972,K4Na4MoW7O20,0.5568000000000004
mp-1099948,K4Na4NbW7O20,0.6614
mp-1076509,K4Na4VMo7O20,0.5642999999999998
mp-1223916,K4NaCl5,4.9602
mp-1224551,K4NaNb5O15,1.9965
mp-1204526,K4NaV10O38,0.07240000000000002
mp-557200,K4Nb11Al2O20F,0.6705000000000005
mp-558475,K4Nb2S10O,1.5316999999999998
mp-560666,K4Nb2Se11O,1.2873
mp-650601,K4Nb2Si8O23,3.7873
mp-560692,K4Nb6O17,2.6564
mp-14873,K4Nb8Si(P2O17)2,1.8863
mp-743604,K4NbFe3(PO4)6,2.3259
mp-567013,K4Ni(NO2)6,2.0757
mp-1224183,K4Ni7(AsO4)6,2.6218000000000004
mp-1199713,K4Np3H8Cl7O10,0.2118000000000002
mp-553977,K4NpS2ClO10,0.1378999999999997
mp-31280,K4P21I,1.3384
mp-1019796,K4P2O7,3.7409
mp-863747,K4P2PdS8,1.7116
mp-1180955,K4P3NO13,0.33140000000000003
mp-721958,K4P4(H2O5)3,5.1963
mp-1237495,K4P4H6WO14,2.9132
mp-722787,K4P4H7(RuO9)2,0.4534999999999998
mp-1211925,K4P4O15,0.07329999999999992
mp-1194562,K4P4O5,2.0957
mp-677192,K4PH5S3O16,5.2584
mp-695043,K4PH5Se3O16,3.7688
mp-1224278,K4PSe3O16,0.07209999999999983
mp-680443,K4Pb9,0.2826
mp-21949,K4PbO3,2.279
mp-22328,K4PbO4,1.6772
mp-1224512,K4PdPt(NO2)8,2.2243
mp-556254,K4Pt2(SO4)5,1.7611
mp-504848,K4Rb2Co2O5,1.0943000000000005
mp-557320,K4Re2Cl10O,0.14159999999999995
mp-1212328,K4Re2H3(C4O9)2,0.7104
mp-1211685,K4Re2HCl10O,0.15470000000000006
mp-1226372,K4Re6Se8O11,0.12739999999999996
mp-1226951,K4Re6TeC6S7N6,2.1312
mp-557385,K4Ru(NO2)6,2.3638
mp-560515,K4Ru2Cl10O,0.5925
mp-560219,K4Sb2N3O9F7,2.9160000000000004
mp-29696,K4Sb2O3,1.2427
mp-757850,K4Sb2O5,2.3454999999999995
mp-18700,K4SiO4,2.9391
mp-1193380,K4Sn(SO)4,0.3482000000000001
mp-569427,K4Sn(TeSe)2,1.5606
mp-1224491,K4Sn21Hg2,0.1933999999999996
mp-4971,K4Sn3Se8,1.4545
mp-570900,K4Sn9,1.1220999999999997
mp-14988,K4SnO3,2.1095
mp-7258,K4SnO4,2.3374
mp-558309,K4SnSb2F14,4.0813
mp-18132,K4SnSe4,1.7396
mp-1203391,K4Sr(SiO3)3,4.159000000000002
mp-570311,K4Sr2SnAs4,0.5377000000000003
mp-22634,K4SrU3O12,2.0705
mp-18664,K4Ta2S11,1.7096000000000002
mp-1223769,K4Ta3NbO12,1.8667
mp-722674,K4Tc2H6C8O21,0.5076
mp-1212432,K4Te8O23,1.2903000000000002
mp-720494,K4TeP4(HO2)10,3.5839999999999996
mp-1197458,K4Th(C2O5)4,0.4815
mp-566830,K4Th(MoO4)4,4.0045
mp-1204818,K4Th(S2O9)2,0.25060000000000004
mp-1181261,K4Ti2C8O23,0.6422
mp-703589,K4Ti2H2O5F8,2.6383
mp-554016,K4Ti2PO4F9,3.0556
mp-706228,K4Ti3Co(PO4)6,1.4505000000000003
mp-743671,K4Ti3Mn(PO4)6,1.2493
mp-698691,K4Ti3Ni(PO4)6,2.2979
mp-541735,K4Ti3S14,1.1896
mp-756510,K4TiO4,3.1456
mp-1224290,K4TiSn3(PO5)4,3.2307
mp-1196851,K4TmP8(N4O17)2,0.11439999999999995
mp-1212649,K4TmP8H18(NO2)8,0.14500000000000002
mp-559639,K4U(PO5)2,2.0197
mp-1194764,K4U3(AsO8)2,1.836
mp-556212,K4U5Te2O21,1.7541
mp-1201015,K4UC2O11,0.7930999999999999
mp-1205024,K4UC2Se2O15,0.4173
mp-6194,K4UC3O11,2.0892
mp-8794,K4UO5,2.1712
mp-653182,K4US3O14,1.8491
mp-565574,K4V2O7,3.4405
mp-579382,K4V3S5O23,2.8128
mp-1224594,K4V4As6H12O31,2.1044
mp-566827,K4V5CdClO15,2.3296
mp-566625,K4V5CuClO15,0.1657
mp-556552,K4VP2S9,1.2594
mp-566242,K4W2Cl10O,1.1831
mp-540967,K4WO5,3.2323
mp-565369,K4WS3O14,3.4321
mp-1204302,K4XeO15,0.03610000000000002
mp-1195357,K4Yb2Si8O21,0.012799999999999978
mp-622489,K4Zn(WO4)3,4.2269
mp-1224111,K4Zn2Sn21,0.4203000000000001
mp-571461,K4ZnAs2,0.7257
mp-703836,K4ZnH6(S2O9)2,0.4794
mp-28382,K4ZnO3,1.6946
mp-11719,K4ZnP2,0.9457
mp-704534,K4Zr3Mn(PO4)6,2.8643
mp-1212265,K4Zr3Te17,0.8644000000000003
mp-27377,K4Zr5O12,3.1865
mp-627575,K4Zr6CBr18,1.1617000000000002
mp-1211812,K4Zr6FeBr18,1.3263
mp-1181072,K4ZrC5O15F2,0.4267000000000001
mp-1213545,K4ZrC8O21,0.24649999999999994
mp-706605,K4ZrH10C8O21,0.9382
mp-1211624,K4ZrO4,2.9409
mp-646920,K5(AsPb)3,0.8377999999999999
mp-643123,K5Ag(NO)2,0.043900000000000015
mp-1201842,K5Ag(S2O3)3,3.1511000000000005
mp-570836,K5Ag2(AsSe3)3,0.9497
mp-1224806,K5AlCr4(MoO4)10,2.756
mp-8683,K5As2Au,0.34650000000000003
mp-27674,K5As3O10,3.057
mp-558332,K5Au(IO)2,1.8748
mp-1019797,K5B(SO4)4,5.2949
mp-554996,K5B19O31,5.3537
mp-1223953,K5BaNbAs4,1.1338
mp-1223894,K5BaTaP4,1.2708000000000002
mp-1223780,K5Br4Cl,4.4374
mp-1223752,K5BrCl4,4.5243
mp-1223943,K5C4Br,1.0964
mp-710070,K5Ce2H2S6O25,0.12700000000000022
mp-1182535,K5Cr10F31,0.7896
mp-14623,K5CuAs2,0.2612999999999999
mp-1224071,K5CuCO5,1.0596
mp-27999,K5CuSb2,0.7470000000000001
mp-1196434,K5Fe2Te5,0.19099999999999984
mp-19684,K5FeO4,1.9722
mp-29377,K5GaSe4,1.9817
mp-777297,K5H(CN2)2,3.8504
mp-720810,K5H3S4N2O15,3.9074
mp-707227,K5H3S5O14,3.6559
mp-1203421,K5Hf3OF17,1.0042
mp-743680,K5HfIn(MoO4)6,3.7106
mp-565206,K5In(MoO4)4,3.4447
mp-557237,K5In3(SiO3)7,3.4899000000000004
mp-1196816,K5In3F14,4.6282999999999985
mp-667326,K5InO4,2.0401
mp-866662,K5La4Si4O16F,4.6610000000000005
mp-557798,K5Li2NdF10,6.4522
mp-1196988,K5Li2PrF10,6.4703
mp-766047,K5Li3Ti8(AsO5)8,3.0181
mp-557473,K5LiGe2O7,3.1502
mp-1224538,K5LuHf(MoO4)6,3.845
mp-1226339,K5Mn2B2P5O21,0.6038999999999999
mp-1194679,K5Mn3O6,0.7535000000000001
mp-1196293,K5Mo3H2S4O2F11,0.3994
mp-1195555,K5Mo4O14F,3.6527
mp-1181060,K5Mo6IO29,0.7904
mp-1225259,K5Mo8As(H3O16)2,3.4126000000000003
mp-1190879,K5MoC7N7O,0.7894
mp-569806,K5Na(Ti2Se9)3,0.8225000000000002
mp-1223849,K5Na3(MoO4)4,4.3748
mp-1076208,K5Na3Nb4(WO5)4,0.4755999999999996
mp-1076886,K5Na3Nb5W3O20,0.1221000000000001
mp-1076335,K5Na3Nb8O24,1.4584
mp-1099712,K5Na3Ta2Nb6O24,1.4755
mp-1076512,K5Na3Ta3Nb5O24,1.4649
mp-1076095,K5Na3Ta4Nb4O24,1.6091
mp-1075953,K5Na3Ta5Nb3O24,1.6024999999999998
mp-1099860,K5Na3Ta6Nb2O24,1.7476999999999998
mp-1076413,K5Na3Ta7NbO24,1.9614
mp-1076510,K5Na3Ta8O24,2.1513
mp-1076363,K5Na3TaNb7O24,1.4757999999999998
mp-554603,K5NaCe2(SO4)6,0.07719999999999994
mp-1200037,K5NaFe2(CO2)12,2.5346
mp-1224256,K5NaNi5(P2O7)4,3.3385000000000007
mp-707453,K5NaP3(HO4)3,4.6397
mp-1228171,K5NaRu(IO11)2,0.16850000000000004
mp-557645,K5NaS4(ClO6)2,5.1579
mp-569711,K5Nb(CN)8,1.7548
mp-6245,K5Nb4O12F,3.4222
mp-14624,K5P2Au,0.4874999999999998
mp-1192490,K5Pr4Si4O16F,5.0419
mp-1197690,K5Pt4(N3O8)3,0.1129
mp-694852,K5RbZn4Sn5S17,1.6119999999999999
mp-755633,K5Se3,0.4279000000000001
mp-1224359,K5Sm(MoO4)4,3.8706
mp-16989,K5SnAs3,0.5394000000000001
mp-29387,K5SnBi3,0.0032999999999998586
mp-5367,K5SnSb3,0.5167000000000002
mp-1211936,K5Ta(TlAs2)2,1.5235999999999998
mp-1228356,K5Te2Mo6H18NO36,0.20390000000000008
mp-644,K5Te3,0.17159999999999995
mp-628680,K5Th(PS4)3,1.9602
mp-27390,K5ThF9,5.9624
mp-555531,K5Tl3O,0.1221000000000001
mp-14439,K5TlO4,1.4847
mp-1224616,K5U(PS4)3,0.16419999999999968
mp-557888,K5U2O4F9,2.7062
mp-1197655,K5U4VS4O33,0.3197
mp-1213511,K5UCr3H3NO17,1.7
mp-556791,K5V3O10,3.0582000000000003
mp-1194921,K5V9H20PtO37,1.9235
mp-1195556,K5Y2Si4O13F,4.346500000000002
mp-738684,K5YH8(CO2)8,4.4154
mp-687239,K5YNi2(NO2)12,1.4293
mp-769176,K5YO4,2.1115
mp-1211906,K5Zn4Sn5H4S17N,1.5282
mp-686585,K6Al11Si13Ag5O48,1.5983
mp-863387,K6Al32O51,2.821
mp-1199737,K6Al4Si6BH4ClO24,4.535
mp-691065,K6Ba2CaU6O24,1.9524000000000004
mp-677080,K6Ba3Ta12(Si2O13)4,2.7982
mp-555866,K6Be4C6O19,4.8084
mp-723540,K6BiH3(Cl2F)4,4.1698
mp-17161,K6CdO4,1.5900999999999998
mp-680480,K6CdPb8,0.4836
mp-1202089,K6Co2C12O31,0.3787999999999999
mp-542551,K6Co2O5,0.7547999999999999
mp-19141,K6Co2O7,1.0823
mp-573101,K6CoMo5O19,2.805
mp-14794,K6CoS4,0.4322999999999999
mp-14795,K6CoSe4,0.4271
mp-850105,K6Cr2O9,0.5209999999999999
mp-560675,K6Cu(SiO4)2,0.5072000000000001
mp-36915,K6Fe2O5,1.314
mp-5116,K6Ge2O7,3.0751
mp-706366,K6H6S6N2O23,5.0752
mp-5114,K6HgS4,1.7161
mp-1191206,K6HgSe4,1.3852
mp-1199428,K6In3H12(N8O27)2,0.06059999999999999
mp-1226185,K6InAs3,0.5028999999999999
mp-1224505,K6InP3,0.754
mp-568916,K6InTe4Cl,1.9503
mp-12171,K6MgO4,1.6783
mp-18244,K6MnS4,1.3035
mp-18481,K6MnSe4,1.2349
mp-18246,K6MnTe4,1.4227000000000003
mp-583414,K6Mo10O33,2.9921
mp-1224269,K6Mo6C5Se8N5,0.16339999999999974
mp-1227772,K6Mo7H18O35,2.3633
mp-1198979,K6Na14MgTl18,0.026600000000000183
mp-1211804,K6Na14Tl18Cd,0.0020999999999999908
mp-766955,K6Na2MnH24(WO6)6,2.1123000000000003
mp-1200820,K6Na2Pt(WO6)6,0.6950999999999999
mp-704360,K6Na2V2S7O30,1.758
mp-541707,K6Na3AlSb4,0.7282999999999997
mp-6112,K6Na3GaSb4,0.6974
mp-1223736,K6Na3Ti2Al2Si8Cl3O26,3.194
mp-555392,K6NaAu2IO8,1.8901
mp-560348,K6Nb4S25,1.5194
mp-561202,K6NbAs3O,1.0121000000000002
mp-567820,K6NbTlAs4,1.1811
mp-505187,K6Pb2O5,2.1249
mp-1223762,K6Pd3(BrCl2)4,1.3773
mp-570241,K6PdSe20,0.9912
mp-1224526,K6Sb2H18S8O9,2.245
mp-559613,K6Se2O9,1.6318
mp-30990,K6Si2O7,3.5066000000000006
mp-555596,K6Si2S6O,3.1497
mp-1120789,K6Sn2S7,2.1166
mp-29386,K6Sn2Se7,1.6825
mp-28728,K6Sn3As5,0.6389999999999998
mp-1225542,K6Sr2Ni5(P2O7)5,3.8869
mp-1224166,K6Ta11O30,0.036100000000000236
mp-740739,K6Te2P6(H4O11)3,0.4560000000000001
mp-5455,K6Ti2O7,3.4489
mp-558062,K6Ti2S6O,2.4834
mp-1196555,K6Tl17,0.04020000000000002
mp-30149,K6Tl2Sb3,0.01869999999999994
mp-559811,K6U2(Cu4S5)3,0.5553999999999997