task_id,composition,band_gap
mp-769992,Li2CrFeO4,2.043
mp-770676,Li2CrH8Cl5O4,2.8598
mp-761997,Li2CrNi(PO4)2,1.7405
mp-1178001,Li2CrO2,1.031
mp-769794,Li2CrO3,1.7417
mp-24920,Li2CrO4,2.6021
mp-540481,Li2CrP2O7,3.7041
mp-774964,Li2CrP3O10,3.2399
mp-779945,Li2CrP4(H2O3)6,2.4080000000000004
mp-763724,Li2CrP4(H4O5)4,2.7064
mp-31739,Li2CrP4O13,0.12710000000000002
mp-777037,Li2CrPCO7,2.8953
mp-779314,Li2CrPHO5,2.8251
mp-770894,Li2CrPO4F,2.2453
mp-761451,Li2CrPO5,2.3448
mp-779944,Li2CrPO6,0.8508
mp-762398,Li2CrSi3O8,3.1126000000000005
mp-762431,Li2CrSi4O11,0.5257999999999998
mp-761347,Li2CrSi7O16,1.8156
mp-761333,Li2CrSiO4,3.0789
mp-761444,Li2CrSiO5,0.2587999999999999
mp-761289,Li2CrSn(PO4)2,2.0592
mp-1178016,Li2CrTeO6,0.4068000000000001
mp-774149,Li2CrWO6,0.5032000000000001
mp-769242,Li2Cu(HO)4,0.4319999999999997
mp-849327,Li2Cu(PO3)3,1.1791999999999998
mp-26261,Li2Cu(PO3)4,0.8250000000000002
mp-757101,Li2Cu(Si2O5)2,0.7930999999999999
mp-757685,Li2Cu(SiO3)2,0.08719999999999972
mp-566061,Li2Cu(WO4)2,0.4236999999999997
mp-768832,Li2Cu2(SO4)3,0.12559999999999993
mp-1178348,Li2Cu2C2O7,0.12739999999999976
mp-758696,Li2Cu2F7,0.032200000000000006
mp-759704,Li2Cu2P4O13,0.22040000000000012
mp-759054,Li2Cu2Si2O7,0.11929999999999995
mp-766023,Li2Cu2Si4O11,0.42120000000000013
mp-757404,Li2Cu2Si5O13,0.4739
mp-1178014,Li2Cu2Si8O19,0.24759999999999985
mp-758427,Li2Cu3(CO3)3,0.0585
mp-26823,Li2Cu3(P2O7)2,0.09529999999999994
mp-753572,Li2Cu3F8,0.11539999999999995
mp-867599,Li2Cu3F9,0.3101999999999999
mp-756163,Li2Cu4S3,0.12699999999999978
mp-766013,Li2Cu4Si4O13,0.06499999999999995
mp-554014,Li2Cu5(Si2O7)2,0.21860000000000035
mp-1096285,Li2CuAg,1.8273
mp-770477,Li2CuAsCO7,0.12069999999999992
mp-1111360,Li2CuAsF6,0.6339000000000001
mp-756323,Li2CuAsO4,1.2786999999999995
mp-1093772,Li2CuAu,2.0997
mp-1202669,Li2CuB4(PbO5)2,0.8488000000000002
mp-778969,Li2CuBi(PO4)2,0.6624999999999996
mp-757660,Li2CuCO4,0.06919999999999993
mp-771969,Li2CuCSO7,0.12809999999999988
mp-753171,Li2CuF4,0.5768
mp-762326,Li2CuF5,0.5465
mp-769075,Li2CuH14C4(N3O4)2,0.7784000000000002
mp-1111113,Li2CuIrF6,0.7389999999999999
mp-6412,Li2CuP2O7,0.7377
mp-849277,Li2CuP3(HO5)2,1.6397
mp-773601,Li2CuP3H8O13,1.6309000000000005
mp-721086,Li2CuP6H20C2(N3O11)2,0.4155
mp-26851,Li2CuPO4,1.5503
mp-1097385,Li2CuPd,0.4517000000000002
mp-15988,Li2CuSb,0.4535
mp-772561,Li2CuSb(PO4)2,1.1310000000000002
mp-1111120,Li2CuSbCl6,0.8828
mp-1111097,Li2CuSbF6,0.36700000000000005
mp-753557,Li2CuSbO5,0.34830000000000005
mp-756431,Li2CuSnO4,0.30189999999999984
mp-767279,Li2DyPCO7,4.7848000000000015
mp-768195,Li2ErPCO7,4.8495
mp-629443,Li2EuGeS4,0.20210000000000014
mp-14629,Li2EuSiO4,0.04330000000000034
mp-770764,Li2Fe(BO2)5,3.0402
mp-765320,Li2Fe(CO3)2,4.0751
mp-540149,Li2Fe(PO3)4,4.1261
mp-705356,Li2Fe(PO3)5,2.4488
mp-694564,Li2Fe(PO3)8,0.0013999999999999568
mp-849220,Li2Fe(SO4)2,4.4042
mp-762571,Li2Fe(Si2O5)2,3.5622000000000007
mp-767964,Li2Fe(SiO3)2,3.3139999999999996
mp-1210849,Li2Fe(WO4)2,2.7591
mp-1178002,Li2Fe2(CO3)3,3.8214
mp-31773,Li2Fe2(MoO4)3,2.6564
mp-851285,Li2Fe2(PO4)3,0.0018999999999999575
mp-778400,Li2Fe2(SO4)3,4.1485
mp-773415,Li2Fe2(Si2O5)3,2.7493
mp-861716,Li2Fe2(SiO3)3,2.5827000000000004
mp-1211052,Li2Fe2(WO4)3,3.2499
mp-779057,Li2Fe2B2O7,2.1347000000000005
mp-765116,Li2Fe2C2O7,3.2713
mp-1203916,Li2Fe2C4Cl2O13,0.3409
mp-763080,Li2Fe2CoO6,0.11050000000000004
mp-776880,Li2Fe2Ni(PO4)3,1.4032
mp-764564,Li2Fe2OF4,2.4931
mp-777626,Li2Fe2OF6,2.3334
mp-1205186,Li2Fe2P2O8F,0.6774
mp-766759,Li2Fe2P2O9,1.6646
mp-1222971,Li2Fe2P2O9F,0.023600000000000062
mp-1177978,Li2Fe2SbO6,0.6873
mp-761405,Li2Fe2Si2O7,3.1294
mp-762775,Li2Fe2Si2O9,0.01739999999999986
mp-767726,Li2Fe2Si3O10,2.3253
mp-761735,Li2Fe2Si4O11,3.3256
mp-761475,Li2Fe2Si5O13,3.3943
mp-765416,Li2Fe2Si8O19,3.0309
mp-766964,Li2Fe2SiO6,2.4928
mp-771808,Li2Fe2SnO6,1.9885
mp-763765,Li2Fe3(BO3)3,0.5566
mp-1212199,Li2Fe3(MoO4)3,0.009199999999999877
mp-31833,Li2Fe3(P2O7)2,3.8897
mp-773357,Li2Fe3(PO4)3,1.4682
mp-761382,Li2Fe3(Si3O8)2,2.8256
mp-762716,Li2Fe3(SiO4)2,2.2296
mp-1177997,Li2Fe3BiO8,1.1288
mp-777872,Li2Fe3CuO8,0.0622999999999998
mp-776754,Li2Fe3F8,3.2095
mp-849525,Li2Fe3O3F5,1.9627
mp-849572,Li2Fe3OF6,2.5329
mp-850031,Li2Fe3P4(HO4)4,3.7761999999999993
mp-762525,Li2Fe3P5O18,1.9507
mp-762680,Li2Fe3P9O28,2.6415
mp-772280,Li2Fe3SbO8,1.8902
mp-761644,Li2Fe3Si3O10,3.0276000000000005
mp-775742,Li2Fe3TeO8,0.06780000000000007
mp-775194,Li2Fe3WO8,1.2702999999999998
mp-780815,Li2Fe4O3F8,1.9601
mp-1120820,Li2Fe4O7,1.2898
mp-849951,Li2Fe4OF8,2.8475
mp-761705,Li2Fe4Si4O13,3.1180000000000003
mp-540431,Li2Fe5(PO4)4,3.5064
mp-761402,Li2Fe5(Si2O7)2,3.0041
mp-772565,Li2Fe5B3O13,1.8815000000000004
mp-853246,Li2Fe5F17,2.9095
mp-849531,Li2Fe5O5F7,1.6714
mp-767707,Li2Fe5Si5O16,2.117
mp-764533,Li2Fe7(OF2)4,1.5197
mp-771469,Li2FeAsCO7,2.1987
mp-1177952,Li2FeBAsO7,0.3708
mp-771409,Li2FeBO4,2.395
mp-778767,Li2FeBPO7,0.2266
mp-22967,Li2FeBr4,0.5386000000000002
mp-761981,Li2FeCO4,2.5659
mp-762024,Li2FeCO5,0.03269999999999995
mp-771422,Li2FeCSO7,4.1541000000000015
mp-1222745,Li2FeCl4,0.0939000000000001
mp-761944,Li2FeCo3O8,0.20150000000000026
mp-763473,Li2FeCo9O20,0.008199999999999985
mp-765803,Li2FeCoO4,0.7536
mp-997530,Li2FeCu(PO4)2,0.10030000000000028
mp-850092,Li2FeF4,3.5932
mp-1177953,Li2FeF5,3.6531
mp-776514,Li2FeF6,0.3129
mp-1210923,Li2FeGeO4,2.1708
mp-770572,Li2FeH12(SO7)2,3.9178
mp-770588,Li2FeH4(SO5)2,4.236700000000001
mp-779816,Li2FeH8(SO6)2,3.8099
mp-769706,Li2FeNi(PO4)2,3.0236
mp-776318,Li2FeNi3O8,0.08000000000000007
mp-774096,Li2FeO2,1.7893
mp-781963,Li2FeO2F,1.8356
mp-774155,Li2FeO3,0.0965999999999998
mp-850401,Li2FeOF3,2.3404
mp-767473,Li2FeP2HO8,2.3839
mp-850262,Li2FeP2O7,3.9852
mp-861136,Li2FeP3O10,2.7885
mp-763722,Li2FeP4(H4O5)4,3.945
mp-763647,Li2FeP4O13,0.030299999999999994
mp-769694,Li2FePCO7,2.3353
mp-851030,Li2FePHO5,3.3721000000000005
mp-776062,Li2FePO4F,3.9356
mp-761481,Li2FePO5,2.3612
mp-756187,Li2FeS2,0.16339999999999974
mp-767963,Li2FeSi3O8,3.0810000000000004
mp-764790,Li2FeSiO4,3.1210999999999998
mp-772694,Li2FeSn(PO4)2,3.1065
mp-1177968,Li2FeSnO4,1.4345
mp-1222769,Li2Ga7,0.027099999999999902
mp-1093540,Li2GaBi,0.027499999999999858
mp-1097256,Li2GaHg,0.039399999999999664
mp-631316,Li2GaSb,0.02720000000000056
mp-1096172,Li2GaSn,0.13699999999999998
mp-1080241,Li2Ge(S2O7)3,3.7659
mp-7998,Li2Ge2O5,3.4088000000000003
mp-1020012,Li2Ge4O9,2.7381
mp-5832,Li2Ge7O15,2.8601
mp-7791,Li2GeF6,5.7409
mp-1029776,Li2GeN2,2.6889000000000003
mp-15349,Li2GeO3,3.568
mp-19896,Li2GePbS4,2.2649000000000004
mp-1222750,Li2GeSb2Te5,0.055500000000000334
mp-1222711,Li2GeTeO6,3.0272
mp-1199620,Li2H10C8O7F18,5.4759
mp-722272,Li2H12C3SN6O7,5.0179
mp-23849,Li2H2SO5,5.5815
mp-24165,Li2H2SeO5,3.9952
mp-1198280,Li2H32Pt(C6O)2,2.7282
mp-720254,Li2H4(SO4)3,5.8773
mp-1078552,Li2H6Pt,2.8715
mp-1210772,Li2H6PtO6,2.5177
mp-643069,Li2HIO,4.3192
mp-699284,Li2HN,2.6355
mp-1177942,Li2Hf2O5,4.3397000000000014
mp-1097065,Li2HfN2,1.8975000000000004
mp-755352,Li2HfO3,4.4196
mp-559070,Li2Hg(PO3)4,3.2671
mp-1095984,Li2HgAs,0.02329999999999988
mp-1096082,Li2HgPb,0.008300000000000196
mp-768200,Li2HoPCO7,4.8056
mp-1222669,Li2IBr,4.1319
mp-1211077,Li2IO6,0.0952
mp-1210850,Li2In(PO4)2,0.1782999999999999
mp-1184972,Li2InBi,0.17239999999999964
mp-1222830,Li2InFe(P2O7)2,2.7822
mp-1097676,Li2InGa,0.04199999999999982
mp-1096020,Li2InGe,0.1865000000000001
mp-1222810,Li2InP2HO8,3.9127
mp-532085,Li2IrO3,0.008900000000000574
mp-1211252,Li2La(NO3)5,3.708
mp-1104121,Li2La2Si3,0.017999999999999794
mp-9406,Li2La2Ti3O10,2.073899999999999
mp-1222859,Li2La3Nd(SbO6)2,3.9067000000000007
mp-1093897,Li2LaAl,0.0929000000000002
mp-866193,Li2LaIn,0.11180000000000057
mp-1210908,Li2Lu5B3O13,4.4442
mp-755876,Li2LuPCO7,4.8748
mp-1193106,Li2Mg(HN)2,2.3019
mp-764817,Li2Mg11(WO4)12,3.4156
mp-14646,Li2Mg2(SO4)3,5.6252
mp-776850,Li2Mg2(WO4)3,4.2023
mp-849669,Li2Mg2MnFe(PO4)4,0.9848
mp-561336,Li2Mg2Si4O11,4.9276
mp-1222684,Li2Mg3Si2,0.21059999999999945
mp-758770,Li2Mg3Ti6O16,3.3131
mp-1096346,Li2MgAg,0.4607000000000001
mp-1195467,Li2MgB12(H4O7)4,5.846500000000002
mp-1199747,Li2MgB4(H17N3)2,5.4686
mp-29009,Li2MgBr4,4.5262
mp-1222661,Li2MgCdP2,1.4255999999999998
mp-38684,Li2MgCl4,5.2764
mp-764439,Li2MgCo13O28,0.9273
mp-774307,Li2MgCr3(SO4)6,0.8111000000000002
mp-773983,Li2MgCr3Se3(SO8)3,0.6478000000000002
mp-773087,Li2MgCu2(SiO3)4,0.4535
mp-1222651,Li2MgGe,0.008300000000000196
mp-1210797,Li2MgGeO4,3.7548
mp-585492,Li2MgMn3O8,1.8867
mp-771786,Li2MgNi3O8,0.8093999999999997
mp-1105932,Li2MgSi,0.3483999999999998
mp-1222909,Li2MgSi5O12,5.1511000000000005
mp-11189,Li2MgSiO4,4.6770999999999985
mp-774752,Li2MgTi3O8,3.2916
mp-1222757,Li2MgTi9O20,2.7110000000000003
mp-1223295,Li2MgZr2H4(OF3)4,0.7073
mp-1222626,Li2MgZrO4,2.974
mp-772440,Li2Mn(BO2)5,1.2029
mp-778528,Li2Mn(BO3)2,2.065
mp-766986,Li2Mn(CO3)2,3.4214
mp-778337,Li2Mn(CoO3)2,0.8104999999999998
mp-762835,Li2Mn(FeO3)2,0.9044000000000004
mp-762624,Li2Mn(NiO3)2,0.4862000000000002
mp-540135,Li2Mn(PO3)4,4.4509
mp-705355,Li2Mn(PO3)5,1.5914
mp-761601,Li2Mn(PO4)2,0.4037
mp-1193172,Li2Mn(SO4)2,4.6121
mp-1177936,Li2Mn(SeO3)2,3.1898
mp-850159,Li2Mn(Si2O5)2,3.0364
mp-850110,Li2Mn(SiO3)2,3.4868999999999994
mp-763704,Li2Mn2(CO3)3,4.0204
mp-762616,Li2Mn2(PO4)3,0.7557999999999999
mp-778555,Li2Mn2(SO4)3,4.6747000000000005
mp-761523,Li2Mn2(Si2O5)3,2.9777
mp-773782,Li2Mn2(SiO3)3,2.6146000000000003
mp-763870,Li2Mn2C2O7,2.1548
mp-763122,Li2Mn2Co(PO4)3,0.7424999999999997
mp-779065,Li2Mn2CoO6,0.5897000000000001
mp-1222848,Li2Mn2CoO8,0.0029000000000000137
mp-775291,Li2Mn2Cr3O12,1.7395999999999998
mp-774095,Li2Mn2CuO6,0.2347000000000001
mp-765055,Li2Mn2F7,0.12080000000000002
mp-776051,Li2Mn2Fe(PO4)3,0.8150999999999997
mp-775390,Li2Mn2Ni(PO4)3,0.6233
mp-565580,Li2Mn2NiO6,1.4988
mp-769784,Li2Mn2O3,0.5571000000000002
mp-763797,Li2Mn2OF4,1.6239
mp-767010,Li2Mn2OF6,1.631
mp-1177944,Li2Mn2P2(H4O5)3,1.2248
mp-770546,Li2Mn2P2O7F2,2.8466
mp-868260,Li2Mn2P2O9,0.6033
mp-1177930,Li2Mn2P3(HO4)3,3.7307
mp-763324,Li2Mn2P4H3O16,0.2750000000000001
mp-780897,Li2Mn2P4H6O17,0.8574
mp-859137,Li2Mn2Si2O7,2.8691000000000004
mp-780790,Li2Mn2Si2O9,0.8885999999999998
mp-767853,Li2Mn2Si3O10,1.2624000000000002
mp-767711,Li2Mn2Si4O11,3.1787000000000005
mp-761470,Li2Mn2Si5O13,3.286
mp-771933,Li2Mn2SnO6,1.2962000000000002
mp-1177949,Li2Mn2V3O12,0.0919
mp-780102,Li2Mn3(BO3)3,0.09729999999999994
mp-767663,Li2Mn3(BO3)4,0.5216
mp-774071,Li2Mn3(CoO4)3,1.0678
mp-767665,Li2Mn3(FeO4)3,0.10449999999999983
mp-32027,Li2Mn3(P2O7)2,3.4753
mp-778864,Li2Mn3(PO4)3,0.01350000000000007
mp-773608,Li2Mn3(SeO3)4,2.7673
mp-766967,Li2Mn3(Si3O8)2,2.8647
mp-774444,Li2Mn3(SiO3)4,1.2431
mp-850240,Li2Mn3(SiO4)2,2.0447
mp-1177935,Li2Mn3CoO8,0.9938000000000002
mp-850956,Li2Mn3Cr3O12,0.0927
mp-775679,Li2Mn3CrO8,0.6906999999999996
mp-774001,Li2Mn3CuO8,0.13439999999999985
mp-1177965,Li2Mn3F8,3.1365000000000003
mp-777396,Li2Mn3FeO8,0.8681000000000001
mp-771807,Li2Mn3NbO8,0.7198000000000002
mp-771112,Li2Mn3NiO8,1.3205
mp-767162,Li2Mn3O4F3,1.0405
mp-762412,Li2Mn3O6,0.8406000000000002
mp-770534,Li2Mn3O7,1.3964
mp-763486,Li2Mn3OF6,1.7183
mp-778628,Li2Mn3P4(HO4)4,3.6289
mp-763668,Li2Mn3P9O28,1.0598999999999998
mp-763186,Li2Mn3SbO8,1.0902000000000005
mp-767709,Li2Mn3Si3O10,2.5783
mp-772578,Li2Mn3SnO8,0.7262000000000004
mp-765001,Li2Mn3TeO8,0.14029999999999987
mp-1177922,Li2Mn3VO8,0.9394
mp-704943,Li2Mn3ZnO8,1.5421
mp-765991,Li2Mn4O3F8,0.0383
mp-767032,Li2Mn4O5F3,0.34019999999999984
mp-770527,Li2Mn4O9,0.2549999999999999
mp-765945,Li2Mn4OF8,2.0591
mp-997546,Li2Mn4P4O15,2.8834
mp-861609,Li2Mn4Si4O13,2.3464
mp-849474,Li2Mn5(CuO6)2,0.061300000000000125
mp-769550,Li2Mn5(FeO6)2,0.3998000000000004
mp-850918,Li2Mn5(PO4)4,3.3165
mp-853136,Li2Mn5(Si2O5)6,2.9910000000000005
mp-761381,Li2Mn5(Si2O7)2,2.5215
mp-764892,Li2Mn5F17,0.1835
mp-763695,Li2Mn5O10,0.2812000000000001
mp-763571,Li2Mn5O12,0.05459999999999998
mp-767443,Li2Mn5Si5O16,2.1642
mp-781184,Li2Mn7(P2O7)4,3.529
mp-767189,Li2Mn7F16,2.6388
mp-767246,Li2Mn7F18,0.6911
mp-763611,Li2Mn7O12,0.6755
mp-770689,Li2MnAl2O6,1.9548999999999996
mp-770551,Li2MnAlO4,1.1098
mp-771488,Li2MnAsCO7,0.7415000000000002
mp-772692,Li2MnBAsO7,0.7690999999999999
mp-771410,Li2MnBO4,0.6277000000000001
mp-772263,Li2MnBPO7,0.7383
mp-28250,Li2MnBr4,1.7798000000000005
mp-762177,Li2MnCO4,2.1318
mp-764236,Li2MnCO5,0.9526
mp-780526,Li2MnCSO7,4.0494
mp-675083,Li2MnCl4,1.8782
mp-769723,Li2MnCo(PO4)2,2.4609
mp-1173910,Li2MnCoO4,0.8340999999999998
mp-761634,Li2MnCr(PO4)2,2.2089000000000003
mp-850919,Li2MnCr2O6,0.6147
mp-1177916,Li2MnCr3O8,0.8514999999999999
mp-773293,Li2MnCrO4,0.9948
mp-778026,Li2MnF4,4.0319
mp-556229,Li2MnF5,1.8414
mp-765003,Li2MnF6,2.9756
mp-773566,Li2MnFe(BO3)2,3.1446
mp-764639,Li2MnFe(PO4)2,3.4593
mp-767440,Li2MnFe2(PO4)3,1.5432
mp-1177898,Li2MnFeO4,1.1356000000000002
mp-1210796,Li2MnGeO4,2.3235
mp-772240,Li2MnH4(SO5)2,4.4362
mp-1178013,Li2MnH8(SO6)2,3.9767
mp-775209,Li2MnNb3O8,0.04780000000000007
mp-778744,Li2MnNi(PO4)2,3.0241
mp-777117,Li2MnNi3O8,0.20740000000000025
mp-765551,Li2MnNiO4,0.2562000000000002
mp-767045,Li2MnO2F,2.1464
mp-18988,Li2MnO3,2.2684999999999995
mp-767979,Li2MnOF2,1.5452
mp-766805,Li2MnOF3,1.5105
mp-781059,Li2MnP2HO8,1.1661
mp-567303,Li2MnP2O7,4.1219
mp-782647,Li2MnP3O10,1.3778
mp-762848,Li2MnP4(H4O5)4,4.1786
mp-780330,Li2MnP4H3O14,2.0745
mp-769717,Li2MnPCO7,0.6842999999999999
mp-782645,Li2MnPHO5,2.8968
mp-776063,Li2MnPO4F,3.0801
mp-865136,Li2MnPO5,0.7417000000000002
mp-770642,Li2MnSO4F3,1.6769999999999998
mp-767282,Li2MnSi3O8,2.6554
mp-770080,Li2MnSiCO7,1.2594
mp-763876,Li2MnSiO4,3.0699
mp-779235,Li2MnSiO5,0.5558000000000001
mp-861541,Li2MnSn(PO4)2,3.0587000000000004
mp-695709,Li2MnSn3O8,1.1584999999999992
mp-1105291,Li2MnSnS4,1.1917
mp-850939,Li2MnV(P2O7)2,0.010100000000000442
mp-761609,Li2MnV(PO4)2,2.5021
mp-770169,Li2MnV(PO4)3,0.9019
mp-761576,Li2MnV2(PO4)3,0.5599000000000003
mp-762879,Li2MnV2O6,0.8170000000000002
mp-775327,Li2MnV3O8,1.5656000000000003
mp-1177907,Li2MnV4CoO12,1.3928
mp-776234,Li2MnV4FeO12,1.3562999999999998
mp-862462,Li2MnV4NiO12,1.3689
mp-770994,Li2MnVO4,0.7126000000000006
mp-849445,Li2MnVP2(HO5)2,0.9980000000000002
mp-776740,Li2MnWO6,1.1686
mp-540310,Li2Mo(PO3)5,4.4309
mp-687229,Li2Mo(PO3)8,0.06990000000000007
mp-585209,Li2Mo(PO4)2,1.9317
mp-675779,Li2Mo3S4,1.4366000000000003
mp-567176,Li2Mo4O13,2.3953
mp-556065,Li2MoF6,2.2737
mp-35975,Li2MoO3,1.5972999999999995
mp-25080,Li2MoO4,4.1184
mp-1101555,Li2MoP4O13,1.8684
mp-863410,Li2Nb(PO3)5,0.3190000000000004
mp-26721,Li2Nb(PO4)2,0.06540000000000035
mp-767930,Li2Nb2Fe3O10,1.5600999999999998
mp-1222998,Li2Nb2W2O13,0.4058
mp-772073,Li2Nb4O11,2.5441
mp-756793,Li2Nb4ZnO12,2.8733
mp-763774,Li2Nb6NiO18,1.2195
mp-761806,Li2NbCo3O8,0.6339999999999999
mp-762276,Li2NbCr3O8,1.9446
mp-775011,Li2NbFe3O8,1.8009
mp-755505,Li2NbOF5,3.8938
mp-673156,Li2NbP4O13,0.4055
mp-769050,Li2NbS3,0.22419999999999973
mp-777682,Li2NbV3O8,1.4940000000000002
mp-1211215,Li2Nd(NO3)5,3.6771
mp-753626,Li2NdPCO7,4.5289
mp-767311,Li2Ni(CO3)2,3.8297
mp-540171,Li2Ni(PO3)4,4.5469
mp-775433,Li2Ni(PS3)2,0.5457999999999998
mp-578763,Li2Ni(SO4)2,4.045400000000001
mp-566900,Li2Ni(WO4)2,3.3584
mp-1211383,Li2Ni2(MoO4)3,2.8768
mp-770331,Li2Ni2(SO4)3,3.8594
mp-775605,Li2Ni2SnO6,0.6304000000000003
mp-32373,Li2Ni3(P2O7)2,4.0405
mp-770972,Li2Ni3BiO8,0.327
mp-765534,Li2Ni3O3F2,2.204
mp-765800,Li2Ni3OF6,3.6301
mp-772333,Li2Ni3SbO8,0.4746000000000001
mp-765648,Li2Ni3SnO8,0.5037000000000003
mp-766659,Li2Ni4OF8,3.3171
mp-705401,Li2Ni4P4O15,3.3233000000000006
mp-771080,Li2NiBO4,1.2049
mp-771489,Li2NiCSO7,3.4721
mp-35759,Li2NiF4,5.0816
mp-32316,Li2NiGe3O8,3.0431
mp-771658,Li2NiH12(SO7)2,4.8361
mp-771916,Li2NiH8(CO5)2,4.4007
mp-778781,Li2NiO2,1.9380000000000002
mp-566008,Li2NiO3,1.3307000000000002
mp-765789,Li2NiOF2,2.1821
mp-779070,Li2NiP2O7,4.312200000000002
mp-566629,Li2NiPO4F,3.6477
mp-773195,Li2NiSn(PO4)2,2.1034
mp-763044,Li2NiSnO4,2.1116
mp-1960,Li2O,4.8986
mp-841,Li2O2,1.9743
mp-1188979,Li2OsO6,0.7502000000000001
mp-1201206,Li2P(HO)6,5.4531
mp-733849,Li2P2H2O7,5.2791
mp-616572,Li2P2PdO7,1.2048
mp-763561,Li2P2WO8,3.0496
mp-762217,Li2P4WO13,2.9841
mp-763414,Li2P5WO15,3.9963000000000006
mp-1198596,Li2P7(H3N)9,2.0649
mp-777867,Li2P8W3O29,2.1807
mp-1020019,Li2PNO2,5.6015
mp-25650,Li2PWCO7,3.5678
mp-25728,Li2PWO4F,2.2275
mp-763423,Li2PWO6,2.8365
mp-22450,Li2PbO3,1.044
mp-1223209,Li2Pd(N2O5)2,0.006800000000000139
mp-13985,Li2PdF6,1.8867
mp-7608,Li2PdO2,1.1825
mp-760483,Li2PdO3,1.4232
mp-983460,Li2PmGa,0.16320000000000026
mp-555979,Li2Pr(NO3)5,3.6557
mp-1096417,Li2PtAu,0.14759999999999973
mp-13986,Li2PtF6,2.4927
mp-1177862,Li2PtO2,1.5275999999999996
mp-1180661,Li2PtO6,0.028299999999999995
mp-1182734,Li2Re2O11,0.8864000000000001
mp-1097387,Li2RhAu,0.7717999999999994
mp-976955,Li2RuF6,0.0398
mp-1153,Li2S,3.3862000000000005
mp-1020013,Li2S2O7,5.5360000000000005
mp-4556,Li2SO4,6.0219
mp-1188639,Li2SO5,0.20720000000000005
mp-684477,Li2Sb(PO3)5,3.9674
mp-771804,Li2SbAsCO7,3.2399
mp-776357,Li2SbP(OF3)2,3.7559
mp-759117,Li2SbP3O10,3.8109
mp-1177866,Li2SbPCO7,4.0771
mp-776356,Li2SbS2,1.4659
mp-769153,Li2SbSO4F3,4.3691
mp-1193287,Li2Sc(PO4)2,0.3212
mp-1111262,Li2ScCuCl6,1.8328
mp-772338,Li2ScFe(SiO3)4,2.9333000000000005
mp-1222849,Li2ScP2HO8,4.769
mp-767341,Li2ScPCO7,4.4398
mp-2286,Li2Se,2.9746
mp-1194726,Li2Se2O7,2.9159
mp-4855,Li2SeO4,3.8324
mp-773694,Li2Si12(NiO6)5,3.9557
mp-767861,Li2Si2Ni2O7,3.202500000000001
mp-768050,Li2Si2Ni3O8,3.1089
mp-765434,Li2Si2NiO6,3.6551
mp-4117,Li2Si2O5,5.154
mp-767008,Li2Si2WO7,2.7995000000000005
mp-1197444,Li2Si3H30(C5N2)2,3.0869999999999997
mp-761647,Li2Si3Ni2O9,3.2408
mp-861659,Li2Si3Ni3O10,3.7239
mp-767953,Li2Si3NiO8,4.393199999999998
mp-555899,Li2Si3O7,5.2253
mp-1177885,Li2Si4Ni2O11,4.0709
mp-761723,Li2Si4Ni4O13,3.4441
mp-765539,Li2Si4Ni5O14,3.0304
mp-770701,Li2Si4NiO10,3.7537
mp-985637,Li2Si4O7,3.0397
mp-861129,Li2Si5Ni2O13,3.6076
mp-761373,Li2Si5Ni5O16,2.9338
mp-853137,Li2Si6Ni2O15,3.8407
mp-761607,Li2Si6Ni3O16,3.411
mp-772132,Li2SiBSbO7,2.6665
mp-1193269,Li2SiF6,8.0813
mp-684024,Li2SiN2,3.8508
mp-775084,Li2SiNiO4,3.2176
mp-5012,Li2SiO3,5.0766
mp-770647,Li2SiSnCO7,3.2726
mp-1021497,Li2SiSnS4,1.9189000000000005
mp-1211322,Li2Sm(NO3)5,3.679
mp-768193,Li2SmPCO7,4.6370000000000005
mp-759667,Li2Sn(BO3)2,3.2075000000000005
mp-1195757,Li2Sn(H5O4)2,4.1366
mp-1101763,Li2Sn(OF3)2,0.7261
mp-26271,Li2Sn(PO3)4,4.0592000000000015
mp-757947,Li2Sn(PO3)5,0.11250000000000028
mp-757479,Li2Sn(PO3)6,2.2905
mp-780576,Li2Sn(SO4)2,3.9934
mp-777931,Li2Sn2(SO4)3,3.7253
mp-26871,Li2Sn3(P2O7)2,2.7556
mp-765351,Li2Sn4P4O15,2.8944
mp-757282,Li2Sn5(PO4)4,2.4523
mp-770833,Li2SnBO4,1.2701000000000002
mp-771707,Li2SnBPO7,2.7307
mp-770884,Li2SnCSO7,3.7891
mp-1205739,Li2SnF6,5.0018
mp-1029385,Li2SnN2,1.6967
mp-3540,Li2SnO3,3.125
mp-1180644,Li2SnO6,0.4868000000000001
mp-27033,Li2SnP2O7,3.9316
mp-1184991,Li2SnPb,0.20900000000000046
mp-1190364,Li2SnS3,1.4149000000000005
mp-1095291,Li2SnSe3,1.249
mp-8673,Li2SnTeO6,2.0439000000000003
mp-561011,Li2Ta2(OF2)3,3.8336
mp-1223123,Li2Ta2W2O13,0.4008000000000001
mp-772938,Li2Ta4O11,3.4741000000000004
mp-4246,Li2TbF6,0.3232999999999999
mp-1210877,Li2TcO3,0.4164000000000003
mp-2530,Li2Te,2.4914
mp-27811,Li2Te2O5,3.484700000000001
mp-1203622,Li2TeMoO6,3.0926
mp-27231,Li2TeO3,3.6614
mp-13843,Li2TeO4,2.2671
mp-558731,Li2TeS3,0.9701000000000004
mp-570080,Li2TeSe3,0.5098000000000003
mp-1196881,Li2TeWO6,3.6319
mp-1194965,Li2Th(AsO4)2,3.9311
mp-1195980,Li2Th5OF22,1.2951
mp-27487,Li2ThN2,2.2243999999999997
mp-759926,Li2Ti(BO3)2,2.9516
mp-761615,Li2Ti(CoO3)2,0.9107000000000004
mp-762684,Li2Ti(FeO3)2,1.793
mp-762559,Li2Ti(NiO3)2,0.4798999999999998
mp-1101987,Li2Ti(OF3)2,0.7587000000000002
mp-684108,Li2Ti(PO3)5,0.2597999999999998
mp-758894,Li2Ti(TeO4)3,1.5618000000000003
mp-1197890,Li2Ti2(PO4)3,0.036100000000000236
mp-1222715,Li2Ti2AsPO10,3.1511
mp-761620,Li2Ti2CoO6,2.2921
mp-762700,Li2Ti2Fe3O10,0.2329999999999999
mp-763753,Li2Ti2FeO6,1.9744000000000008
mp-762569,Li2Ti2Mn5O12,0.7539000000000002
mp-743387,Li2Ti2MnCr2(PO4)6,2.3555
mp-1222689,Li2Ti2MnNiO8,0.8939999999999997
mp-849444,Li2Ti2NiO6,2.8433
mp-756294,Li2Ti2O5,3.7434
mp-753863,Li2Ti2S5,1.1803000000000003