task_id,composition,band_gap
mp-1198002,Cs2VS5O,1.6596
mp-1226138,Cs2W(OF2)2,3.1725
mp-1227891,Cs2W3(S2O)4,0.6642
mp-761354,Cs2WO4,4.5316
mp-1213748,Cs2WO8,2.9832
mp-17361,Cs2WS4,2.2374
mp-581165,Cs2Xe(BrF7)4,2.9129
mp-1112323,Cs2YAgBr6,3.1522
mp-1112288,Cs2YAgCl6,3.7098
mp-1110987,Cs2YAgF6,3.3391
mp-1112931,Cs2YAgI6,2.4594
mp-1112918,Cs2YAuBr6,1.65
mp-1112919,Cs2YAuCl6,2.0553000000000003
mp-1112916,Cs2YAuI6,1.1517000000000002
mp-1213783,Cs2YCl5,4.7551
mp-1111878,Cs2YCuBr6,2.0853
mp-1112909,Cs2YCuCl6,2.4017000000000004
mp-1112877,Cs2YCuI6,1.7212
mp-1113063,Cs2YInBr6,2.9636
mp-1112628,Cs2YInCl6,3.3996
mp-1113062,Cs2YInF6,3.9401
mp-1112795,Cs2YInI6,0.050899999999999945
mp-581114,Cs2YSi4O10F,4.8312
mp-1112106,Cs2YTlBr6,3.6928
mp-1112103,Cs2YTlCl6,4.2353000000000005
mp-1112482,Cs2YTlF6,4.9311
mp-1112156,Cs2YTlI6,3.0866
mp-1078265,Cs2YbCl4,5.0496
mp-1025273,Cs2YbH4,2.9135
mp-505633,Cs2Zn3S4,2.8432
mp-1238553,Cs2Zn5P6(HO2)14,2.5891
mp-1199216,Cs2ZnBi2S5,1.7230000000000003
mp-1193173,Cs2ZnBr4,3.8344
mp-540578,Cs2ZnCl4,4.5412
mp-570545,Cs2ZnFe(CN)6,4.1718
mp-779814,Cs2ZnH12(SO7)2,5.1596
mp-779742,Cs2ZnH12(SeO7)2,3.767
mp-1181768,Cs2ZnH4,3.9431
mp-1204449,Cs2ZnI4,3.2202
mp-579919,Cs2ZnN12,3.8208
mp-504601,Cs2ZnO2,1.7129
mp-1214991,Cs2ZnSi5O12,4.2057
mp-1078823,Cs2Zr(AgTe2)2,1.6401
mp-556129,Cs2Zr(IO3)6,3.4495
mp-581877,Cs2Zr(Si2O5)3,4.9468999999999985
mp-6694,Cs2Zr(SiO3)3,4.7898999999999985
mp-1226158,Cs2Zr(WO4)3,2.9165
mp-1226277,Cs2Zr2Mn(MoO4)6,2.5056
mp-697946,Cs2Zr2ZnH12(OF2)6,4.1025
mp-571150,Cs2Zr7CI18,0.11840000000000027
mp-1227000,Cs2ZrAl2(MoO4)6,3.4461
mp-638729,Cs2ZrCl6,3.6365
mp-1201167,Cs2ZrCu3F12,0.06870000000000001
mp-7903,Cs2ZrF6,6.6924
mp-1226541,Cs2ZrFe2(MoO4)6,2.6585
mp-1206511,Cs2ZrI6,1.8404
mp-1226199,Cs2ZrMn(MoO4)4,2.201
mp-8759,Cs2ZrO3,3.8539999999999996
mp-9856,Cs2ZrSe3,1.3713
mp-42227,Cs2ZrTlOF5,4.1425
mp-1214812,Cs3(Na13In24)2,0.008099999999999774
mp-1199633,Cs3Ag(AsSe2)4,1.5924
mp-1198053,Cs3Ag2Sb3S8,1.173
mp-1226259,Cs3Ag9(SbS3)4,1.5473000000000003
mp-582723,Cs3AlAs2,0.7389000000000001
mp-1112379,Cs3AlBr6,3.3854
mp-1113233,Cs3AlCl6,4.5413000000000014
mp-561315,Cs3AlGe2O7,3.6472
mp-1112654,Cs3AlI6,2.107
mp-562441,Cs3AlO3,2.2692000000000005
mp-619651,Cs3AlP2,0.9831000000000004
mp-1193748,Cs3AlTe3,2.1375
mp-1201199,Cs3As(PSe3)3,1.7605
mp-573812,Cs3As11,1.3912000000000002
mp-1104872,Cs3As2Cl9,2.6361
mp-30300,Cs3As5O9,3.1356
mp-573631,Cs3As7,1.6303
mp-1112376,Cs3AsBr6,2.9211
mp-1112373,Cs3AsCl6,3.3933
mp-1112951,Cs3AsI6,2.3403
mp-30119,Cs3AsO4,3.3566000000000003
mp-1201774,Cs3AsSe4,1.3015
mp-569984,Cs3Au2Br11,1.1427
mp-505212,Cs3AuO,1.3261000000000005
mp-572441,Cs3AuO2,1.7916
mp-1203209,Cs3B12AsF18,2.3277
mp-542819,Cs3B12H12Br,4.7562
mp-24799,Cs3B12H12Cl,4.9577
mp-643710,Cs3B12H12I,4.535
mp-1196535,Cs3B3Se10,1.7891
mp-695929,Cs3B6H12S4Br,4.9166
mp-740711,Cs3B6H12Se4Br,4.4933000000000005
mp-573658,Cs3BAs2,1.4871
mp-1229098,Cs3BAsP,1.5917
mp-1019608,Cs3BO3,2.4689000000000005
mp-9675,Cs3BP2,1.6973
mp-30222,Cs3BS3,2.5301
mp-1181689,Cs3Ba4C3O9F5,4.7493
mp-1227437,Cs3Bi11Se18,0.8376999999999999
mp-1200951,Cs3Bi2(PS4)3,2.0605
mp-1104268,Cs3Bi2Cl9,3.2297
mp-650619,Cs3Bi7Se12,0.6092999999999997
mp-1112980,Cs3BiBr6,3.4221000000000004
mp-570123,Cs3BiCl6,3.8517
mp-1112606,Cs3BiF6,4.5375000000000005
mp-1112977,Cs3BiI6,2.8318000000000003
mp-29505,Cs3BiO3,3.0476
mp-581738,Cs3BiSe3,2.0207
mp-1205638,Cs3BrO,1.5665000000000002
mp-1213703,Cs3Ca2Cl7,5.175
mp-1198664,Cs3CaFe(P2O7)2,2.4246
mp-1188465,Cs3CdBr5,3.0377
mp-1184118,Cs3CdH5,2.7584
mp-669317,Cs3CdI5,2.7925
mp-1214351,Cs3CeCl6,0.3306
mp-632715,Cs3CeF6,0.26229999999999976
mp-1226409,Cs3Cl5O,0.4204999999999999
mp-562420,Cs3ClO,1.8351
mp-29287,Cs3CoBr5,0.6983
mp-1105622,Cs3CoCl5,0.8653
mp-1196088,Cs3CoI4NO3,2.0634
mp-569323,Cs3CoI5,0.7504000000000001
mp-23451,Cs3Cr2Br9,1.3066
mp-1193179,Cs3Cr2Cl9,1.6275
mp-621938,Cs3Cr2I9,1.0042
mp-614750,Cs3CrF7,0.7466
mp-669419,Cs3Cu2(BiS2)5,0.4841999999999995
mp-582423,Cs3Cu2Br5,2.3785
mp-582024,Cs3Cu2Cl5,2.5338000000000003
mp-23481,Cs3Cu2I5,2.5112
mp-1196135,Cs3Cu3Cl8O,0.056300000000000024
mp-16543,Cs3Cu5O4,1.6383
mp-560345,Cs3CuTeS9,1.3247
mp-1206092,Cs3DyCl6,4.7615
mp-1178583,Cs3DyO3,2.0694
mp-1193312,Cs3Er2Br9,4.2946
mp-1194135,Cs3Er2I9,2.891
mp-1226424,Cs3Er5(PS4)6,2.2679
mp-1213797,Cs3ErCl6,5.061299999999999
mp-757032,Cs3ErO3,2.2385
mp-29575,Cs3Fe2Cl9,0.9037
mp-619767,Cs3Fe2F9,4.0304
mp-1200802,Cs3Fe4(PO4)5,2.4999
mp-1205629,Cs3FeF6,3.952
mp-1199975,Cs3FeMo4O15,2.7574
mp-556103,Cs3Ga2F9,5.8466000000000005
mp-541678,Cs3GaAs2,0.9704999999999996
mp-1112368,Cs3GaBr6,2.3433
mp-1113231,Cs3GaCl6,3.5291
mp-1113117,Cs3GaF6,5.855
mp-1114197,Cs3GaI6,1.1753
mp-770463,Cs3GaO3,2.8922000000000003
mp-1201960,Cs3GaP2,0.9470999999999998
mp-542448,Cs3GaSe3,2.0806
mp-1194926,Cs3Gd(PO4)2,3.0813
mp-1112364,Cs3GdCl6,3.1365
mp-1226537,Cs3Ge2Sb3O13,1.7253
mp-510341,Cs3Ge4Au,0.9304
mp-1204552,Cs3Ge9(H3N)2,1.1897
mp-582708,Cs3GeAsSe5,1.7736999999999998
mp-17973,Cs3GeF7,4.3869
mp-1193194,Cs3GeSe3,1.7231
mp-1193606,Cs3GeTe3,1.1911
mp-1226414,Cs3H(SF6)2,4.4484
mp-1226195,Cs3H(SeO4)2,3.452
mp-1196740,Cs3H12N4F3,4.8312
mp-643006,Cs3H5Pd,2.2703
mp-643005,Cs3H5Pt,2.2893
mp-1203208,Cs3Hf2CuTe10,1.1246
mp-1197320,Cs3Hf2P5S18,2.1672
mp-1202741,Cs3HgBr5,2.4712
mp-27354,Cs3HgCl5,3.0401
mp-651121,Cs3HgI5,2.1472
mp-1192709,Cs3Ho2Br9,4.1878
mp-1206492,Cs3HoCl6,4.7231000000000005
mp-768211,Cs3HoO3,2.5936
mp-1206444,Cs3IO,1.5325
mp-1213723,Cs3IO5,1.4565
mp-27172,Cs3In2Cl9,3.4584
mp-1232408,Cs3In3(PO4)4,3.0948
mp-1112651,Cs3InBr6,2.6733
mp-1112991,Cs3InCl6,3.7192
mp-1112970,Cs3InF6,5.1532
mp-1112969,Cs3InI6,1.6049
mp-28381,Cs3InO3,2.1174
mp-1198384,Cs3InP2,0.6688999999999998
mp-1227037,Cs3K5Mo8(P2O11)4,1.883
mp-555611,Cs3KRe6C6(S4N3)2,2.1868000000000003
mp-1226678,Cs3KZr2(Si3O10)2,0.9792
mp-1214521,Cs3La(MoO4)3,3.7948
mp-1213905,Cs3LaBr6,3.8877
mp-582080,Cs3LaCl6,4.5827
mp-1188821,Cs3LaI6,3.1287
mp-1203144,Cs3LaN18,3.4474
mp-768536,Cs3LaO3,1.836
mp-1213966,Cs3Li2Al(MoO4)4,4.2901
mp-1080005,Cs3Li2Br5,4.209
mp-570756,Cs3Li2Cl5,5.257300000000001
mp-558728,Cs3Li2F5,5.9268
mp-1213707,Cs3Li2Fe(MoO4)4,2.9322
mp-642261,Cs3Li2Ga(MoO4)4,4.0242
mp-1181918,Cs3Li2I5,3.7435
mp-1019615,Cs3Li4(BO2)7,4.5217
mp-606711,Cs3LiCl4,4.763999999999999
mp-559766,Cs3LiF4,5.6548
mp-569238,Cs3LiI4,3.8043
mp-1213704,Cs3LiPb4,0.5263
mp-568137,Cs3Mg2Cl7,4.3798
mp-720658,Cs3Mg3In(PO3)12,4.665699999999998
mp-643895,Cs3MgH5,2.5844
mp-648179,Cs3Mn3V4O16,0.8896999999999999
mp-562193,Cs3Mn4(PO3)12,4.0888
mp-27332,Cs3MnBr5,2.7134
mp-504451,Cs3MnCl5,2.8967
mp-559361,Cs3MnF7,1.5495
mp-643706,Cs3MnH5,1.6533
mp-569118,Cs3MnI5,2.2911
mp-1226446,Cs3MnZn3(PO3)12,1.1128
mp-619752,Cs3Mo2(O2F)3,3.9928
mp-23015,Cs3Mo2Br9,1.0076
mp-1184398,Cs3Mo2BrO7,3.0549
mp-541742,Cs3Mo2Cl9,1.0421
mp-571531,Cs3Mo2I9,0.9283
mp-566271,Cs3Mo4P3O16,0.10060000000000002
mp-617548,Cs3Mo5P7O24,1.4118000000000002
mp-778950,Cs3NO4,2.8066000000000004
mp-17707,Cs3Na2SnP3,1.261
mp-607931,Cs3NaLi2(BO3)2,3.454
mp-630851,Cs3NaPb4,0.4754
mp-1192748,Cs3Nb2I9,0.4359000000000002
mp-669313,Cs3Nb2S11,1.5506
mp-1197158,Cs3Nb2Se11,0.8858000000000001
mp-1213734,Cs3Nb6SBr17,0.6467999999999998
mp-1201443,Cs3Nb9(TeO8)4,1.4041
mp-1197800,Cs3Nd(MoO4)3,3.7629
mp-572442,Cs3Nd(PS4)2,2.1845000000000003
mp-582081,Cs3NdCl6,4.9486
mp-1189297,Cs3NiCl5,0.1120000000000001
mp-614768,Cs3NiF7,0.7702
mp-23636,Cs3Np(Cl2O)2,0.3642000000000001
mp-1204998,Cs3P11(H3N)3,1.9672
mp-1213859,Cs3P3HO9,2.9609
mp-16108,Cs3P6N11,4.0878999999999985
mp-541113,Cs3P7,2.3466000000000005
mp-572271,Cs3P7Pb2O21,4.9376
mp-559808,Cs3PO4,3.5723
mp-583193,Cs3PSe4,1.8309
mp-1183951,Cs3Pb4Au,0.7946
mp-1213701,Cs3PdF5,2.0606
mp-1214290,Cs3Pr(MoO4)3,3.7707
mp-1226429,Cs3Pr5(PS4)6,2.3112
mp-1213891,Cs3PrCl6,4.8837
mp-1206084,Cs3PrF6,5.4189
mp-1226988,Cs3Rb5Mo12(P3O17)4,2.2932
mp-1118943,Cs3Re2N5,0.3325
mp-669364,Cs3Re3(SI)4,2.4356
mp-1213776,Cs3Re6(S4Cl3)2,0.13829999999999987
mp-1227999,Cs3Re6(SCl)7,2.3685
mp-1213725,Cs3ReO5,2.0876
mp-1197124,Cs3Rh9(CO)19,1.2203
mp-541646,Cs3Ru2Cl9,0.4885999999999999
mp-27629,Cs3Sb2Cl9,2.3937
mp-622000,Cs3Sb2N3(O3F2)3,3.1479
mp-29970,Cs3Sb5O14,0.9143
mp-1226651,Cs3Sb5S9,0.5228999999999999
mp-1226687,Cs3Sb5Se9,0.23649999999999996
mp-1112952,Cs3SbBr6,2.8535
mp-1112353,Cs3SbCl6,3.3084
mp-1112602,Cs3SbF6,3.7971
mp-1204671,Cs3SbH2S4O,2.1830000000000003
mp-1112968,Cs3SbI6,2.4187000000000003
mp-562072,Cs3SbO3,3.0838
mp-1201472,Cs3SbO4,2.7432000000000003
mp-1193894,Cs3SbS3,2.6515
mp-1204783,Cs3SbS4,2.1159000000000003
mp-1192816,Cs3SbSe3,2.2706
mp-17811,Cs3SbSe4,1.5387000000000002
mp-1213834,Cs3Sc2Br9,3.0303
mp-637194,Cs3Sc2Cl9,3.9353
mp-1112351,Cs3ScBr6,3.3137
mp-1203917,Cs3ScCl6,3.9887
mp-1112965,Cs3ScF6,6.2439
mp-1113076,Cs3ScI6,2.4534
mp-768976,Cs3ScO3,2.7453
mp-13748,Cs3SiF7,5.633800000000001
mp-572833,Cs3Sm(PS4)2,2.1903000000000006
mp-1226868,Cs3Sm7Se12,1.4727
mp-1226825,Cs3Sm7Te12,0.8559000000000001
mp-1112348,Cs3SmCl6,4.7485
mp-1181655,Cs3Sn4Au,0.7269999999999999
mp-1193021,Cs3SnTe3,1.2446
mp-572625,Cs3SrCu2C7(SN)7,2.8882000000000003
mp-556091,Cs3Ta2S11,1.6882999999999997
mp-562434,Cs3Ta5O14,3.7885
mp-561942,Cs3TaO8,3.0226
mp-17054,Cs3TaS4,2.983
mp-571397,Cs3Tb10C4Cl21,0.6788000000000003
mp-669304,Cs3Tb2Br9,4.0904
mp-1226739,Cs3Tb7Te12,0.8430999999999997
mp-1112345,Cs3TbCl6,4.7669
mp-696965,Cs3TbF6,5.7503
mp-569484,Cs3Ti2Cl9,0.21810000000000015
mp-1203892,Cs3Ti3Te11,0.1229
mp-12244,Cs3TiF7,2.9901
mp-1213694,Cs3Tl2Br9,0.184
mp-1192769,Cs3Tl2Cl9,2.1794
mp-1112647,Cs3TlBr6,1.6915
mp-1112344,Cs3TlCl6,2.5460000000000003
mp-561827,Cs3TlF6,3.3218
mp-1112949,Cs3TlI6,0.8173
mp-1226140,Cs3TlNi3F10,4.763999999999999
mp-756122,Cs3TlO3,1.8307
mp-1201357,Cs3Tm11Te18,0.8895000000000004
mp-669308,Cs3Tm2I9,2.8921
mp-1112342,Cs3TmCl6,4.7848000000000015
mp-756459,Cs3TmO3,2.3148
mp-557858,Cs3U2Ge2O11,0.1942999999999997
mp-1201643,Cs3U2PO10,2.1321
mp-1226167,Cs3V2O2F7,2.8345
mp-624117,Cs3V4Te2ClO14,2.2750000000000004
mp-644672,Cs3VH8(Cl3O2)2,2.4005
mp-1200171,Cs3VS4,1.8207
mp-1120763,Cs3VSe4,1.5928
mp-568614,Cs3W2Cl9,0.7297000000000002
mp-1119092,Cs3W2N5,1.9126
mp-1019614,Cs3Y(PO4)2,4.4731000000000005
mp-1238356,Cs3Y2(H2N)9,9.999999999976694e-05
mp-568937,Cs3Y2Br9,4.0444
mp-1192829,Cs3Y2Cl9,4.8919999999999995
mp-1226222,Cs3Y7Se12,1.5151
mp-1112645,Cs3YBr6,4.0619
mp-1112341,Cs3YCl6,4.7758
mp-1113151,Cs3YF6,5.8340999999999985
mp-1112962,Cs3YI6,3.3564
mp-770815,Cs3YO3,2.6355
mp-1188115,Cs3ZnBr5,3.6429
mp-570262,Cs3ZnCl5,4.2793
mp-643702,Cs3ZnH5,2.7476
mp-556385,Cs3ZnI4NO3,3.147
mp-1200647,Cs3ZnI5,3.1506
mp-540822,Cs3Zr2I9,0.3956
mp-1204981,Cs3Zr2P5S18,1.9355
mp-567781,Cs3Zr7BCl20,1.1953999999999998
mp-1201250,Cs3Zr7MnCl20,1.1171000000000002
mp-1200467,Cs4(BS)9,3.177
mp-1198415,Cs4(BSe)9,2.3237
mp-1197340,Cs4AsH5Se3O16,3.5389
mp-1104686,Cs4Au6S5,2.4848
mp-560944,Cs4Ba(PO3)6,5.106400000000002
mp-1198646,Cs4BaV6O18,3.0437000000000003
mp-23583,Cs4BiSbCl12,0.5768
mp-561834,Cs4CO4,1.227
mp-619753,Cs4CdNi3F12,4.428
mp-1196471,Cs4Co3F10,2.9081
mp-505031,Cs4Cu3F10,0.11959999999999993
mp-561495,Cs4CuSi2O7,0.7149000000000001
mp-1226269,Cs4Fe(MoO4)3,2.8621
mp-1191216,Cs4Fe2O5,1.9052
mp-616251,Cs4Fe3F10,3.1395
mp-1205381,Cs4FeO3,1.4146999999999998
mp-1201003,Cs4FeO4,0.5848
mp-574485,Cs4Ga2Se5,2.1171
mp-1226418,Cs4Ga3FeS8,0.4914000000000001
mp-1195705,Cs4Ge(PS3)4,2.0946
mp-1195417,Cs4Ge(PSe3)4,1.3829
mp-1202502,Cs4Ge5(PbS4)4,2.298
mp-779716,Cs4GeO4,2.7671
mp-1200610,Cs4GeTe6,1.0785
mp-1200567,Cs4Hf3Se14,1.7144
mp-771139,Cs4HfO4,2.7399000000000004
mp-1190726,Cs4In2S5,2.1763000000000003
mp-1225983,Cs4InSbCl12,1.0971
mp-561672,Cs4IrO4,0.3644000000000003
mp-628617,Cs4K2Cu(SiO4)2,0.6454999999999997
mp-1200353,Cs4K3U3Si4O20F,2.0798
mp-561000,Cs4KLiFe2F12,4.0828
mp-15079,Cs4KLiGa2F12,6.0599
mp-562394,Cs4Li2(Si2O5)3,4.408
mp-5476,Cs4Mg3F10,6.2806
mp-697948,Cs4Mg3H10,3.2805
mp-690929,Cs4MgZr3(PO4)6,3.7949
mp-1192853,Cs4Mn(AsS4)2,1.0233
mp-1226457,Cs4Mn3O6,1.2363000000000004
mp-1228955,Cs4Na2ScGaF12,6.3018
mp-562542,Cs4NaHf3H2F19,6.8635
mp-555696,Cs4Nb2Si8O23,3.7172
mp-558142,Cs4Ni3F10,4.9549
mp-1202549,Cs4Os2Cl10O,0.8145999999999999
mp-866688,Cs4P2PdSe8,1.4224
mp-569193,Cs4P2Se9,1.5047
mp-574070,Cs4Pb9,0.8233000000000001
mp-23436,Cs4PbBr6,3.8959
mp-1190733,Cs4PbCl6,4.2893
mp-1238804,Cs4PbI6,3.4087
mp-1199752,Cs4PbO3,1.6982
mp-542099,Cs4PbO4,1.7688999999999997
mp-1213695,Cs4Rb2Fe2O5,1.4904000000000002
mp-683929,Cs4Re6C4S9N4,1.4766
mp-652494,Cs4Re6S13,1.3348999999999998
mp-650137,Cs4Re6Se13,1.0731000000000002
mp-679984,Cs4Ru2Cl10O,0.6547
mp-642535,Cs4Sb14S23,1.3732999999999995
mp-553374,Cs4Sb2O5,2.5747
mp-1019713,Cs4Si3O8,3.658
mp-771255,Cs4SiO4,2.5639
mp-29834,Cs4SiSe4,2.3269
mp-574224,Cs4SiTe4,1.8366
mp-1226308,Cs4Sn21Hg2,0.2439
mp-505014,Cs4Sn2Te7,1.1354000000000002
mp-17213,Cs4SnO4,2.3406
mp-1181839,Cs4Sr(SnSe3)3,1.6085
mp-14578,Cs4Ta2S11,1.8065
mp-579058,Cs4Tc6S13,0.9311999999999996
mp-1202488,Cs4TeSe15,1.0369000000000002
mp-680198,Cs4Th2P5Se17,1.3128
mp-542011,Cs4Ti3S14,1.2939999999999996
mp-650007,Cs4TlSbCl12,0.9016
mp-689817,Cs4U2V2O13,2.0504
mp-704952,Cs4U3Mo3O20,2.0623
mp-1192638,Cs4U3Si4O17,0.0636000000000001
mp-4393,Cs4U5O17,1.5343
mp-573096,Cs4UC3O11,2.0485
mp-636464,Cs4V2S4O3,1.9412000000000005
mp-17951,Cs4Zn3F10,4.6801
mp-1019612,Cs4ZnO3,1.6802
mp-705889,Cs4Zr3Mn(PO4)6,2.7516000000000003
mp-768674,Cs4Zr3Se14,1.5144
mp-667336,Cs4Zr3Te16,1.0936000000000003
mp-1203593,Cs4Zr6BBr17,1.0432
mp-28543,Cs4ZrO4,2.7473
mp-581775,Cs5(KPb6)3,0.7385999999999999
mp-683972,Cs5Ag4C8IN8,2.6729
mp-1199840,Cs5As(PSe3)4,1.6227
mp-1197848,Cs5As5Se9,1.2836
mp-644925,Cs5Bi(MoO4)4,3.6867
mp-566800,Cs5CaNi4F15,5.4603
mp-704975,Cs5CeNi2(NO2)12,0.27370000000000005
mp-1226391,Cs5CoAgCl8,0.9592
mp-1201412,Cs5FeO4,1.3230999999999995
mp-1193337,Cs5Ga3Se7,2.0955
mp-616141,Cs5GeAs3,0.8261999999999996
mp-582182,Cs5In3As4,0.9739000000000004
mp-1203906,Cs5Na(W2N5)2,1.8446
mp-556239,Cs5Nb2S4Br9,1.7892
mp-621112,Cs5Nb2S4Cl9,1.7854
mp-1228296,Cs5Re6S8Cl7,2.5997000000000003
mp-628742,Cs5Sb8,0.5847000000000002
mp-554842,Cs5Si3AgO9,2.6818
mp-616140,Cs5SiAs3,0.8105000000000002
mp-616135,Cs5SiP3,0.8416000000000001
mp-1182756,Cs5Tc6S8Br7,1.761
mp-1188281,Cs5Te3,0.9152
mp-682548,Cs5Te3H4NCl18,2.6576
mp-1197467,Cs5Th(PS4)3,2.0984
mp-16000,Cs5Ti6AgSe27,0.5868
mp-1105330,Cs5U2S4ICl8,0.2873999999999999
mp-1198376,Cs5V5FeCl6O13,1.6480000000000001
mp-1178475,Cs5YO4,1.9337
mp-635020,Cs6Bi4O9,2.3603
mp-1178399,Cs6Br4O,1.7847
mp-29983,Cs6Cl4O,1.984
mp-773199,Cs6Co2O7,1.1449000000000005
mp-1193081,Cs6Cr2O7,1.4819
mp-1197810,Cs6Dy21S34Cl,1.9444
mp-1203042,Cs6Dy21Te34Cl,1.0341
mp-1105876,Cs6Fe2O5,1.5234
mp-9697,Cs6GaSb3,0.4411000000000001
mp-1178450,Cs6Ge2O7,2.9052999999999995
mp-1201448,Cs6Hf5(O2F13)2,1.1094000000000002
mp-1199243,Cs6Ho21S34Cl,1.9582
mp-1201961,Cs6Ho21Te34Cl,1.0456000000000003
mp-22506,Cs6InAs3,0.5004999999999997
mp-17120,Cs6K3AlSb4,0.6537000000000002
mp-541811,Cs6K3GaSb4,0.6364999999999998
mp-1204705,Cs6Mo4C10S2O27,0.1564
mp-557127,Cs6Na2Nb6H36O37,3.6183
mp-628279,Cs6Si2NiO8,3.0802
mp-18315,Cs6Si2O7,3.1656000000000004
mp-770128,Cs6Ti2O7,3.333
mp-1199290,Cs6U2(Cu4S5)3,0.5171999999999999
mp-619101,Cs6ZnGe8,1.1263
mp-1195066,Cs7(FeS2)4,0.2567000000000004
mp-581533,Cs7(In2Bi3)2,0.4283999999999999
mp-1203378,Cs7(InAs2)3,0.31499999999999995
mp-510075,Cs7Au5O2,0.8031999999999999
mp-667295,Cs7Cd3Br13,2.9374
mp-650499,Cs7Co4F15,3.0056
mp-573073,Cs7Cu6F19,0.4654
mp-616869,Cs7Fe4F15,3.431
mp-1204347,Cs7Mo8AsO30,2.9731
mp-1199908,Cs7NaSi8,1.8641
mp-631378,Cs7NbIn3As5,1.1113
mp-650451,Cs7Ni4F15,4.9957
mp-705054,Cs7U8V2ClO32,1.5213
mp-1229160,Cs8(Re4S9)3,1.4653
mp-1198676,Cs8Fe2O7,1.7496999999999998
mp-1202213,Cs8Ga11Cl,0.9265
mp-1196865,Cs8In2O7,1.8599
mp-1226675,Cs8Na4Y3HoCl24,5.07
mp-1226101,Cs8Na4YHo3Cl24,5.1015
mp-542069,Cs8Ta6O19,3.4757
mp-561017,Cs8Tl8O,0.2062999999999997
mp-1197180,Cs8Zr(MoO4)6,3.8467
mp-1198953,Cs9(NbAs3)2,0.3195000000000001
mp-1202536,Cs9Fe2S7,0.6572
mp-1201016,Cs9Fe2Se7,0.5148000000000001
mp-863760,CsAcTe2,0.8815
mp-699468,CsAg(BH)10,3.9226
mp-558217,CsAg(NO3)2,2.6683
mp-679997,CsAg2(B5O8)3,3.5836
mp-1193928,CsAg2BiS3,1.1291000000000002
mp-23496,CsAg2I3,2.2789
mp-561902,CsAg3S2,0.411
mp-16234,CsAg3Se2,0.19390000000000016
mp-1213692,CsAg3Te2,0.4057
mp-10480,CsAg5Se3,0.003099999999999881
mp-1198931,CsAg7S4,0.4863999999999997
mp-571100,CsAgBr2,1.796
mp-10101,CsAgC2,2.6144
mp-567558,CsAgCl2,2.2017
mp-1199489,CsAgH12C4S4(NO4)2,4.1893
mp-8666,CsAgO,1.4479000000000002
mp-1096933,CsAgO2,1.0566
mp-865980,CsAgPSe3,1.4266
mp-18105,CsAgSe4,1.3113
mp-634446,CsAl(H2N)4,2.9105
mp-542116,CsAl(MoO4)2,3.8773
mp-562920,CsAl(SiO3)2,4.7668
mp-558602,CsAl3(P3O10)2,5.4323000000000015
mp-1226735,CsAl3(SiO4)3,2.9736
mp-542129,CsAlBP2HO9,5.2654
mp-29103,CsAlBr4,4.393
mp-27260,CsAlCl4,5.3868
mp-572702,CsAlF4,6.7432
mp-1226105,CsAlFe3(SiO4)3,1.8391
mp-1198095,CsAlH24(SO10)2,5.2934
mp-24523,CsAlH24(SeO10)2,4.2024
mp-1225930,CsAlNiF6,5.089499999999999
mp-14069,CsAlO2,4.2734999999999985
mp-17033,CsAlPdF6,0.6158
mp-1192933,CsAlSiO4,4.464
mp-1189272,CsAlTe3,1.3571000000000004
mp-1213699,CsAlZnF6,5.039
mp-1185571,CsAs(HO2)2,3.8773
mp-645172,CsAs2Se3,1.3891
mp-554229,CsAs3O8,2.2357
mp-30927,CsAs4F13,5.2662
mp-5707,CsAsF4,4.6082
mp-9820,CsAsF6,5.2216
mp-866612,CsAsH6(CSe)2,2.2014
mp-776093,CsAsO3,2.6306
mp-562403,CsAsOF4,3.8615
mp-1200560,CsAu(IO3)4,1.8683
mp-555376,CsAu(SO4)2,1.5857
mp-554737,CsAu2F7,1.7706000000000002
mp-9384,CsAu3S2,2.3501
mp-9386,CsAu3Se2,2.1741
mp-569548,CsAuBr3,0.6515000000000001
mp-1065405,CsAuC2,2.0644
mp-23484,CsAuCl3,0.8098
mp-1095499,CsAuCl4,1.8318
mp-572767,CsAuF4,2.3516
mp-28453,CsAuI3,0.7272000000000001
mp-568861,CsAuN12,1.4521000000000002
mp-9986,CsAuO,1.3835
mp-997024,CsAuO2,1.4726
mp-1077383,CsAuS,2.0156
mp-574599,CsAuSe,1.7036999999999998
mp-567913,CsAuSe3,1.0418999999999998
mp-505375,CsB(CF4)2,6.6173
mp-13588,CsB(CN)4,6.3597
mp-759303,CsB10H13C,4.8432
mp-863006,CsB2H5O6,5.0467
mp-1198124,CsB2P2HO9,5.8248
mp-28582,CsB3H8,5.9585
mp-1004528,CsB3PbF12,6.2981
mp-23742,CsB5(H2O3)4,5.6249
mp-581194,CsB5O8,5.9417
mp-707883,CsB6H8O7,2.0004
mp-27590,CsB9H14,3.8007
mp-531006,CsB9O13,3.1242
mp-680683,CsB9O14,5.4514
mp-559063,CsBC3NO2F9,3.4032
mp-555532,CsBC3NOF9,2.5838
mp-4057,CsBF4,7.798399999999999
mp-1225884,CsBH4,5.7698
mp-1199273,CsBHC3OF9,5.773
mp-561725,CsBO2,3.8457
mp-1004530,CsBPb(IF2)2,2.6219
mp-1019717,CsBS3O11,5.6438000000000015
mp-573358,CsBSe3,1.7009999999999998
mp-556936,CsBa(BO2)3,4.0415
mp-541722,CsBa2Br5,4.3948
mp-1225929,CsBa2Co2F9,3.1259
mp-865726,CsBa2Cr2F11,3.4923
mp-505814,CsBa2Nb3O10,1.4077000000000002
mp-1225987,CsBa2Ni2F9,4.9398
mp-1194731,CsBa2SnS4Cl,2.5462
mp-1225924,CsBa2Zn2F9,4.8033
mp-1225999,CsBa3Ga5(Se5Cl)2,2.2007000000000003
mp-567121,CsBaCr3F12,2.8965
mp-1096925,CsBaI3,3.6246
mp-532541,CsBaIn2(PO4)3,4.0908
mp-1019708,CsBaLiP2O7,4.8878
mp-1192526,CsBaPS4,2.3677
mp-995225,CsBaSiHO4,3.9698
mp-1192754,CsBaVS4,1.4904000000000002
mp-553342,CsBe2BO3F2,6.0015
mp-27192,CsBe2F5,7.1808999999999985
mp-1019718,CsBe4(BO3)3,5.4195
mp-540725,CsBe4Al4(B3O7)4,0.06400000000000006
mp-9113,CsBeAsO4,3.8666
mp-12262,CsBeF3,6.6442999999999985
mp-24341,CsBeH3,3.2171000000000003
mp-15395,CsBePO4,5.1939
mp-1205121,CsBi,0.24449999999999994
mp-1213697,CsBi(MoO4)2,2.661
mp-1105273,CsBi2Br7,2.8624
mp-29531,CsBi3S5,1.4278999999999995
mp-1226121,CsBi4Se7,0.6336999999999997
mp-27422,CsBiF6,2.8234
mp-29506,CsBiO2,2.3232
mp-28650,CsBr2F,1.7459000000000002
mp-27641,CsBr3,2.1967
mp-22935,CsBrF,2.4765
mp-1103152,CsBrF4,3.2414
mp-541226,CsBrF6,4.0158
mp-28873,CsBrO3,4.3026
mp-29577,CsBrO4,3.0454
mp-505806,CsC,3.1051
mp-1213690,CsC(OF)2,0.7713000000000001
mp-1721,CsC10,0.7518000000000002
mp-608206,CsC2I3N2,3.2363
mp-1029718,CsC2N3,4.0656
mp-573066,CsC2S2N(O2F3)2,6.168900000000002
mp-569889,CsC3(SeN)3,1.8086
mp-1181828,CsC4S4N8O2F,2.1779
mp-1225916,CsCNO,4.5360000000000005
mp-555131,CsCO2,4.1438
mp-14734,CsCOF3,6.117000000000001
mp-554592,CsCS(OF)3,5.5996
mp-614311,CsCSN,4.480099999999998
mp-757826,CsCa(NO2)3,2.6181
mp-1201263,CsCa(PO3)3,5.2969
mp-1195838,CsCa(SeO4)3,0.0020000000000000018
mp-1019714,CsCa10(PO4)7,5.2034
mp-581330,CsCa2Nb3O10,2.274
mp-10347,CsCa2Ta3O10,2.1782000000000004
mp-30056,CsCaBr3,4.3924
mp-862701,CsCaCO3F,4.5158000000000005