task_id,composition,band_gap
mp-557103,B5Pb2ClO9,3.4890000000000003
mp-1200548,B5Pb2IO9,3.3139
mp-779174,B5SbO10,2.1823
mp-1203749,B5TeH5C,2.122
mp-624,B6As,2.6454000000000004
mp-849797,B6H10C2SBr,4.5166
mp-31064,B6H10N,5.6575000000000015
mp-1201564,B6H13CN4,5.2555
mp-560159,B6H21C5N2O,4.4939
mp-1346,B6O,1.8524000000000005
mp-1197636,B6P2H14N2O19,1.1158
mp-1096825,B6Pb,0.9208999999999996
mp-1197284,B6Pb3O11F2,3.0374
mp-27820,B7H10,2.5117
mp-758800,B84O11,2.8160000000000003
mp-733481,B8H10N,0.4686
mp-1228685,B8O,2.4693
mp-1228676,B8P,0.15840000000000032
mp-1198815,B8P2H18IrC8Cl,0.2931
mp-1199795,B8P2H39RhC13,2.2867
mp-1198024,B8PH24PtC7,1.3114
mp-1201012,B8PbO15,0.016900000000000012
mp-29654,B9H11,2.9118
mp-28052,B9H11C2,3.6607
mp-28668,B9H11N4,3.0055
mp-27202,B9H8S,4.156000000000001
mp-1182634,B9Pb8O21F,3.4296
mp-622018,BAs5(Pb3O10)2,2.9516
mp-1191775,BAsH4NO4F,4.3477
mp-3277,BAsO4,4.2615
mp-22430,BAsPbO5,3.3721
mp-685043,BBr,1.2319
mp-23225,BBr3,3.8273
mp-1215031,BC10XeF17,2.1325
mp-1214900,BC12ClF10,2.8185
mp-1215033,BC24Br(NF2)6,1.4827
mp-629458,BC2N,1.6619000000000008
mp-1214918,BC6BrNF5,3.6522
mp-1195493,BC6XeF11,1.5730000000000002
mp-1199460,BCl,0.2292000000000001
mp-557856,BCl(OF2)2,1.9494
mp-23316,BCl2,2.9181
mp-23184,BCl3,4.7135
mp-23398,BClF6,3.3031
mp-27864,BF2,4.8996
mp-558149,BF3,8.1417
mp-1105235,BH(PbO2)2,3.1768
mp-734069,BH10C2N5O3,4.5377
mp-698289,BH11AuC4IN2,1.9587
mp-554318,BH11C4BrNF4,5.1176
mp-559235,BH11C4NClF4,6.3732000000000015
mp-1182357,BH12C3N,5.6541
mp-1200814,BH12N4F3,4.8729
mp-1204476,BH17C6NCl,5.0641
mp-696298,BH2CO,4.0087
mp-29475,BH2N,5.2948
mp-720847,BH2NCl2,5.8178
mp-707009,BH2OF3,7.5534
mp-1214776,BH2S3N3F4,2.1738
mp-634117,BH3,5.3234
mp-24160,BH3NF3,7.7194
mp-697120,BH3NF4,7.5583
mp-696379,BH3OF4,7.657299999999998
mp-1193817,BH4C4N5,6.3568
mp-27341,BH4N,5.9404
mp-720391,BH4NF4,7.4709
mp-696656,BH4O2F3,7.0555
mp-706612,BH5(NF2)2,6.204
mp-1196968,BH5(OF2)2,6.9636999999999984
mp-706227,BH5C4(N2O)2,0.006900000000000017
mp-696210,BH5CN2,5.4699
mp-706606,BH5CSN2,3.9122
mp-1106172,BH5NCl,5.4184
mp-862539,BH6CN3F4,5.6634
mp-1188579,BH6N,6.0147
mp-699265,BH6Ru3C6O19F4,0.08440000000000003
mp-27612,BH7N2,5.6370000000000005
mp-567989,BH8CN,6.1579999999999995
mp-558506,BH9(CO)3,5.7751
mp-1200679,BHN4,4.3681
mp-1198592,BHO2,6.288399999999998
mp-1200187,BHS3O11,5.6963
mp-23189,BI3,2.6816
mp-7991,BN,4.2732
mp-555207,BN(OF2)2,2.9938
mp-27486,BN3Cl2,3.2518
mp-1203052,BNCl,0.016199999999999992
mp-23045,BNCl2,2.8083
mp-1182455,BNF4,2.7537000000000003
mp-4674,BNF8,2.9979
mp-1182442,BO2F3,2.0284
mp-1203648,BOs3(CO)10,0.29450000000000004
mp-1203334,BP(H3N)3,4.9005
mp-567433,BP(IBr)3,1.9337
mp-1201606,BP(PbO2)4,2.7862
mp-569608,BP2N2Cl7,3.0653
mp-1182507,BP2Pb2O9,0.02650000000000041
mp-1203864,BP3(PbO4)3,3.9649
mp-1200474,BP4(HO2)3,4.362
mp-863030,BP4(SBr)3,2.631
mp-1197482,BP4(SI)3,2.1626
mp-1202148,BP4H36Rh(C9F5)4,2.514
mp-1228851,BP5(Pb3O10)2,3.8172
mp-568514,BPBr2NCl3,2.9078
mp-1201622,BPBr6,2.7093
mp-1195775,BPH4NO4F,5.809799999999999
mp-758984,BPH9C2,5.6154
mp-3589,BPO4,7.2565
mp-21266,BPPbO5,4.2589999999999995
mp-27724,BPS4,2.2625
mp-1202733,BPb2O3F,3.1934
mp-1201056,BPb3O4F,2.3544
mp-1201413,BPb7Br3O7,1.9212
mp-540668,BS2,2.5564
mp-556762,BS2N2OF7,4.937
mp-1201734,BS4(NF)4,0.4113
mp-16813,BS4N4F3,1.9522
mp-27245,BSBr,3.6628
mp-27349,BSF7,4.9968
mp-755829,BSbO3,3.654900000000001
mp-1214789,BSe2,1.755
mp-561226,BTe3(OF5)3,3.7899
mp-27286,Ba(Ag3O2)2,1.0629999999999995
mp-1096838,Ba(AgO)2,1.7092
mp-8579,Ba(AgS)2,0.8761000000000001
mp-18501,Ba(AgTe)2,0.6732999999999998
mp-30023,Ba(AlCl4)2,5.3836
mp-14246,Ba(AlS2)2,3.6497
mp-1228740,Ba(AlSe2)2,3.0541000000000005
mp-28505,Ba(AlTe2)2,1.5454
mp-14501,Ba(As3Pt2)2,0.19179999999999972
mp-28719,Ba(AuF4)2,2.5324
mp-558168,Ba(AuF6)2,1.5741999999999998
mp-9297,Ba(AuO2)2,1.4782
mp-1203559,Ba(BH)12,5.8056
mp-540659,Ba(BO2)2,4.522399999999998
mp-1204604,Ba(BO2)5,0.6019
mp-1201084,Ba(BO4)2,0.022299999999999983
mp-30126,Ba(BS2)2,2.7399
mp-570823,Ba(BSe3)2,1.6958000000000002
mp-12927,Ba(BeN)2,1.1717
mp-1228976,Ba(BiS2)2,1.2836
mp-1190125,Ba(BrF4)2,3.1848
mp-554626,Ba(BrO3)2,4.1943
mp-669448,Ba(C2N3)2,1.0745
mp-1214983,Ba(C2O5)2,0.442
mp-30237,Ba(CO)4,2.5917
mp-1193053,Ba(CO2)2,0.2267000000000001
mp-1214990,Ba(CO3)2,0.855
mp-8281,Ba(CdAs)2,0.1591999999999998
mp-8279,Ba(CdP)2,0.6793
mp-1182380,Ba(ClO)2,0.5586
mp-28512,Ba(ClO3)2,5.268700000000001
mp-1190390,Ba(ClO4)2,5.4191
mp-21918,Ba(Co5As3)2,0.0018000000000002456
mp-1229162,Ba(Cr5S8)2,0.2375000000000007
mp-7374,Ba(CuO)2,1.3793000000000002
mp-5970,Ba(CuS)2,0.9028
mp-4473,Ba(CuSe)2,0.4863
mp-30133,Ba(CuTe)2,0.6006999999999998
mp-1193410,Ba(DyS2)2,1.7561999999999998
mp-1193797,Ba(DySe2)2,1.3869000000000002
mp-17927,Ba(DyTe2)2,0.7862
mp-1192439,Ba(ErS2)2,1.7249000000000003
mp-1192805,Ba(ErSe2)2,1.3823
mp-17928,Ba(ErTe2)2,0.7848999999999995
mp-582518,Ba(Fe2O3)9,0.04959999999999986
mp-568396,Ba(FeBr4)2,0.8935000000000001
mp-19154,Ba(FeO2)2,1.7429
mp-1183302,Ba(GaAs)2,1.2654999999999998
mp-680226,Ba(GaO2)2,3.0273000000000003
mp-1105728,Ba(GaP)2,1.3799
mp-849286,Ba(GaS2)2,2.8999
mp-29938,Ba(GaSb)2,0.027800000000000047
mp-7841,Ba(GaSe2)2,1.8578
mp-38117,Ba(GaTe2)2,0.5282
mp-1192904,Ba(GdS2)2,1.5956999999999997
mp-1194410,Ba(GdSe2)2,1.0897
mp-1182773,Ba(GdTe2)2,0.5689000000000002
mp-27810,Ba(GeAs)2,0.02479999999999993
mp-27809,Ba(GeP)2,0.5134000000000003
mp-625888,Ba(H2O3)2,0.002700000000000036
mp-626263,Ba(H8O5)2,3.8353
mp-1182823,Ba(H9O5)2,0.5971
mp-1214843,Ba(HCl)2,1.1089
mp-626973,Ba(HO)2,4.5412
mp-625873,Ba(HO2)2,2.9433
mp-1193583,Ba(HoS2)2,1.7362000000000002
mp-17273,Ba(HoTe2)2,0.7850000000000001
mp-30991,Ba(IO3)2,3.5562000000000005
mp-1105940,Ba(InP)2,0.4954000000000001
mp-21943,Ba(InS2)2,2.3251000000000004
mp-1214945,Ba(InSb2)2,0.2479999999999993
mp-21766,Ba(InSe2)2,1.6869999999999998
mp-21183,Ba(InTe2)2,0.9628
mp-754198,Ba(LaI4)2,2.1541
mp-33615,Ba(LaS2)2,2.0684
mp-37741,Ba(LaSe2)2,1.7602000000000002
mp-984052,Ba(LuS2)2,1.7477000000000005
mp-1192674,Ba(LuSe2)2,1.3895
mp-1192634,Ba(LuTe2)2,0.7829999999999999
mp-8280,Ba(MgAs)2,1.0689000000000002
mp-29209,Ba(MgBi)2,0.3967999999999998
mp-8278,Ba(MgP)2,1.1366
mp-9567,Ba(MgSb)2,0.8466
mp-19857,Ba(MnP)2,0.001100000000000101
mp-624196,Ba(Mo3O5)2,0.08589999999999964
mp-27897,Ba(NO2)2,2.3587
mp-4396,Ba(NO3)2,3.6154
mp-752573,Ba(NaSi2)2,1.0116999999999998
mp-1029502,Ba(NbN2)2,2.1708
mp-866306,Ba(NdS2)2,1.6426000000000005
mp-36007,Ba(NdSe2)2,1.5999
mp-18991,Ba(NiO2)4,0.2845999999999997
mp-1104130,Ba(P2Au)2,0.3552999999999997
mp-2983,Ba(PN2)2,3.9118
mp-559939,Ba(PO3)2,5.4349
mp-28967,Ba(PdS2)2,0.8922000000000003
mp-36223,Ba(PrS2)2,1.9354
mp-33606,Ba(PrSe2)2,1.6190000000000002
mp-1029619,Ba(ReN2)2,0.0860000000000003
mp-1196150,Ba(ReO6)2,0.5490000000000002
mp-1200730,Ba(SO2)2,2.3964000000000003
mp-1197994,Ba(SO2)4,0.1755
mp-1182450,Ba(SO4)2,1.5482
mp-1198200,Ba(SO4)5,0.019500000000000076
mp-1200875,Ba(SbO2)3,0.010800000000000145
mp-9127,Ba(SbO3)2,2.8606
mp-28129,Ba(SbS2)2,1.4872999999999998
mp-4727,Ba(SbSe2)2,0.9964999999999996
mp-17501,Ba(ScTe2)2,0.4310000000000001
mp-567771,Ba(Si3N4)2,3.2547999999999995
mp-1194376,Ba(SmS2)2,1.7245
mp-1193757,Ba(SmSe2)2,1.3924999999999996
mp-17786,Ba(SmTe2)2,0.7957000000000001
mp-1029616,Ba(TaN2)2,2.6931
mp-1193223,Ba(TbS2)2,1.7542
mp-17153,Ba(TbTe2)2,0.7858999999999998
mp-1228689,Ba(TeMo)6,0.3764000000000003
mp-27254,Ba(TeO3)2,1.7482000000000002
mp-31275,Ba(TeP2)2,1.1654999999999998
mp-1193579,Ba(TmS2)2,1.7422999999999995
mp-1193169,Ba(TmSe2)2,1.3891
mp-18196,Ba(TmTe2)2,0.7841
mp-1029918,Ba(VN2)2,1.5875000000000004
mp-29036,Ba(YS2)2,1.7564000000000006
mp-1193099,Ba(YSe2)2,1.3861999999999997
mp-17872,Ba(YTe2)2,0.8059000000000003
mp-1194322,Ba(YbS2)2,1.7058999999999995
mp-7427,Ba(ZnAs)2,0.29879999999999995
mp-1228723,Ba10Br4N5Cl,1.1050999999999995
mp-1228725,Ba10BrN5Cl4,1.0459
mp-1228784,Ba10IBr4N5,1.1252
mp-773964,Ba10LiW7O30,1.5209
mp-1228946,Ba10MgMn3V8(Cl3O7)4,2.4493
mp-1228897,Ba10Nd4Y(MoO6)5,1.0907
mp-16990,Ba10P6SO24,3.188
mp-40160,Ba10Ta10(N3O7)3,0.015700000000000713
mp-766994,Ba10V10O29,0.7658000000000005
mp-1229144,Ba10Y5(Fe5O12)3,0.6759
mp-570121,Ba11(CdSb2)6,0.5093999999999999
mp-676580,Ba11(Nb3S14)2,0.4653000000000001
mp-676889,Ba11(Ta3S13)2,0.5819999999999999
mp-1195112,Ba11B26P2(H3O29)2,4.492699999999999
mp-1228710,Ba12Br3Cl2F19,5.5665
mp-560641,Ba12Cl5F19,5.980499999999998
mp-1228928,Ba12FeSi3S20,0.06440000000000001
mp-1229173,Ba12Sm4Al3(CoO6)5,0.6347999999999998
mp-1229266,Ba12SrCa3(Ru2O9)4,0.15739999999999998
mp-1229148,Ba13B30(PbO30)2,4.0942
mp-1229338,Ba13Ca2Re9(ClO15)3,2.4046
mp-555356,Ba13Dy8Zn4Pt4O37,2.2975000000000003
mp-1197065,Ba13Si6(Sn4As11)2,0.7290000000000001
mp-530714,Ba14AlSb11,0.5247999999999999
mp-532211,Ba14MnSb11,0.016499999999999737
mp-542834,Ba14Na17CaN6,0.007499999999999841
mp-1229282,Ba14U2Fe4S25O,0.3965000000000001
mp-1229227,Ba14U2V4S25O,0.2027000000000001
mp-620609,Ba15(ZrSe3)14,0.2641
mp-680291,Ba15Fe7S25,0.02099999999999991
mp-532092,Ba16Bi16O45,0.03340000000000032
mp-1228969,Ba16Ca2HC12N25O4,1.9564000000000004
mp-30001,Ba16Nb5N19,1.6979000000000002
mp-1197806,Ba16Re6O37,1.4856999999999998
mp-760205,Ba16S16O59,4.9752
mp-679951,Ba17Al3O7,0.004700000000000149
mp-556377,Ba17Dy16Zn8Pt4O57,2.2995
mp-561249,Ba17Er16Zn8Pt4O57,2.3049
mp-555188,Ba17Ho16Zn8Pt4O57,2.2984000000000004
mp-557741,Ba17Tm16Zn8Pt4O57,2.3147
mp-560146,Ba17Y16Zn8Pt4O57,2.2817
mp-1204693,Ba18In8(S7F6)3,2.2909
mp-684007,Ba19(InN)9,0.16480000000000006
mp-569025,Ba19Na29Li13,0.014700000000000046
mp-644875,Ba2(InAs)5,0.04570000000000008
mp-642642,Ba2(InP)5,0.3087
mp-1197757,Ba20Cd4Hg99,0.14789999999999992
mp-1201907,Ba20Hg103,0.1837
mp-1229136,Ba20Ru11PtO48,0.00240000000000018
mp-686442,Ba20Y10Cu(Ru3O20)3,0.036599999999999966
mp-1196499,Ba20Zn5Hg99,0.05209999999999981
mp-1215155,Ba21(Cd2Bi9)2,0.32220000000000004
mp-684034,Ba21(Cd2Sb9)2,0.7315
mp-1228614,Ba2Ag8S7,0.959
mp-1097642,Ba2AgAu,0.115
mp-1183207,Ba2AgBi,0.29800000000000004
mp-1093547,Ba2AgHg,0.17580000000000018
mp-1206237,Ba2AgIO6,0.12970000000000015
mp-984720,Ba2AgSb,0.2864
mp-691076,Ba2Al4Si6H14O27,0.6104
mp-1044813,Ba2AlCo2F11,3.0809
mp-1044788,Ba2AlCr2F11,3.1102000000000003
mp-561318,Ba2AlCu2F11,0.5741999999999999
mp-1228786,Ba2AlCuF9,0.2219
mp-1044845,Ba2AlFe2F11,3.8605
mp-1048504,Ba2AlFe3O7,0.34830000000000005
mp-698114,Ba2AlH7,2.96
mp-556282,Ba2AlInO5,2.0183
mp-1044802,Ba2AlNi2F11,4.2505
mp-1044546,Ba2AlSn2F11,4.1286999999999985
mp-1095859,Ba2AlTl,0.8937000000000002
mp-1046381,Ba2AlTlCo2O7,0.031700000000000284
mp-1048433,Ba2AlTlNi2O7,1.2311
mp-1044800,Ba2AlV2F11,2.4566
mp-1044860,Ba2AlW2F11,1.4025
mp-1228674,Ba2AlZnF9,5.6572
mp-1194732,Ba2As2O7,3.3198
mp-28134,Ba2As2S5,1.3668
mp-28348,Ba2As2Se5,1.0236999999999998
mp-757280,Ba2As6O11,3.1679000000000004
mp-861937,Ba2AsAu,0.5188000000000001
mp-1096666,Ba2AsBr,0.7228000000000001
mp-1087236,Ba2AsSe4O3,0.11770000000000015
mp-1232309,Ba2Au(CO)2,0.8525
mp-1019522,Ba2B10O17,5.6719
mp-1196038,Ba2B11H7O22,5.6682
mp-1198263,Ba2B2AsH3F18,5.0234000000000005
mp-771158,Ba2B2O5,3.9978
mp-30105,Ba2B4Se13,1.3581000000000003
mp-1214841,Ba2B5BrO9,5.0904
mp-555742,Ba2B5ClO9,5.2417
mp-1198110,Ba2B5HO10,4.8031000000000015
mp-1199077,Ba2B6H4O13,5.2322
mp-1194549,Ba2B6PbO12,4.2337
mp-568923,Ba2BN2Cl,2.7508
mp-679630,Ba2BeS(OF)4,3.8258
mp-1044589,Ba2Bi2F11,0.2141
mp-28670,Ba2Bi2O5,2.0078
mp-674537,Ba2Bi6O11,1.8359
mp-862947,Ba2BiAu,0.4229000000000003
mp-23127,Ba2BiSbO6,1.6979000000000006
mp-1079891,Ba2Br2O,3.3041
mp-1018098,Ba2BrN,1.1377000000000002
mp-8271,Ba2Ca(BO2)6,4.959300000000002
mp-549737,Ba2Ca(BO3)2,4.0801
mp-17380,Ba2Ca(PdO2)3,1.2944000000000004
mvc-2768,Ba2Ca2Tl2Sn3O10,0.4236000000000004
mp-694875,Ba2Ca2Zn5Fe3O14,0.2261
mp-766303,Ba2Ca7I18,3.3846
mvc-2242,Ba2CaCo2CuF14,0.5517000000000001
mp-641162,Ba2CaCr2CuF14,1.0019
mvc-14958,Ba2CaCr2F14,0.8707999999999999
mp-1045638,Ba2CaCuBi2F14,1.0145
mp-1045884,Ba2CaCuMo2F14,0.7659
mp-1045646,Ba2CaCuSb2F14,0.7274
mp-1214725,Ba2CaFe2CoF14,2.2071
mp-622251,Ba2CaFe2CuF14,0.9529
mp-1214730,Ba2CaGa2CuF14,0.7767000000000001
mp-756725,Ba2CaI6,3.5732
mp-540862,Ba2CaMgAl2F14,7.1836
mp-1045850,Ba2CaMn2CuF14,1.0988
mp-1214779,Ba2CaMnFe2F14,2.1172000000000004
mp-1214724,Ba2CaMnV2F14,2.3468
mp-19403,Ba2CaMoO6,2.258
mp-758007,Ba2CaP4(H3O8)2,5.4657
mp-1019518,Ba2CaSi4(BO7)2,4.8764
mp-550685,Ba2CaTeO6,2.9976
mvc-3436,Ba2CaTi2CuF14,0.3065000000000002
mp-557448,Ba2CaUO6,2.1961000000000004
mvc-12280,Ba2CaV2(P2O9)2,1.9472
mp-1203415,Ba2CaV2CoF14,2.4496
mp-641854,Ba2CaV2CuF14,0.14660000000000006
mp-1214736,Ba2CaV2FeF14,2.2109
mp-669377,Ba2CaWN4,1.8491
mp-19182,Ba2CaWO6,3.2692
mp-1228573,Ba2CaY(Co4O7)2,0.6261000000000001
mp-1190588,Ba2Cd(BO2)6,4.3374
mp-1104453,Ba2Cd2As3,0.006800000000000139
mp-1093931,Ba2CdAg,0.2360999999999997
mp-1079666,Ba2CdAs2,0.3878999999999997
mp-1093582,Ba2CdGe,0.06620000000000004
mp-1228889,Ba2CdGe10,0.05489999999999995
mp-1214739,Ba2CdGe2O7,2.8895
mp-1207118,Ba2CdMoO6,2.5421
mp-1199629,Ba2CdP4(H3O8)2,4.4326
mp-18309,Ba2CdS3,2.0868
mp-16870,Ba2CdSe3,1.5746
mp-1183198,Ba2CdSn,0.12329999999999995
mp-16904,Ba2CdTe3,1.402
mp-1229035,Ba2Ce2Ti2Fe(Si4O13)2,0.00480000000000036
mp-42307,Ba2Ce3Si3O12F,0.2032000000000007
mp-6850,Ba2CeC3O9F,0.029200000000000337
mp-1228392,Ba2CePbO6,2.1283000000000003
mp-21879,Ba2CePtO6,1.4204
mp-1228396,Ba2CeZrO6,2.287
mp-1018650,Ba2ClF3,5.7401
mp-18735,Ba2Co(BO2)6,2.1832
mp-505731,Ba2Co(PO4)2,2.9574
mp-567145,Ba2Co2ClF7,2.6528
mp-1228776,Ba2Co4BrO7,0.035900000000000036
mp-635331,Ba2CoC2(O3F)2,3.0660000000000003
mp-29812,Ba2CoCl6,0.35270000000000024
mp-1190827,Ba2CoGe2O7,2.7443
mp-561894,Ba2CoMoO6,1.1860999999999997
mp-19625,Ba2CoO4,1.2212999999999998
mp-558955,Ba2CoReO6,0.16670000000000051
mp-629701,Ba2CoSe2(ClO3)2,3.0066999999999995
mp-542209,Ba2CoSi2O7,2.905
mvc-13241,Ba2Cr2CuF14,0.4193
mp-1048905,Ba2Cr2F11,0.4162
mp-31751,Ba2Cr7O14,0.0026000000000001573
mp-1214706,Ba2CrF6,2.4187000000000003
mp-566511,Ba2CrO4,1.7988999999999995
mp-1182577,Ba2Cu(C3O8)2,0.040100000000000025
mp-558012,Ba2Cu(PO3)6,1.1062
mp-9372,Ba2Cu(PO4)2,0.25849999999999995
mp-772788,Ba2Cu2O5,0.7701
mp-1194948,Ba2Cu2Te2P2O13,0.3611
mp-1199575,Ba2Cu2Te4Br2O11,0.2889999999999997
mp-560007,Ba2Cu7(AsO4)6,0.3786000000000001
mp-1228525,Ba2CuAg3(SnS4)2,0.6474999999999995
mp-552934,Ba2CuBrO2,2.3073
mp-551456,Ba2CuClO2,2.3029
mp-3879,Ba2CuF6,0.8402000000000001
mp-22067,Ba2CuGe2O7,0.1876
mp-561179,Ba2CuIO2,2.2555
mp-1045817,Ba2CuMo2F14,1.2404000000000002
mp-11613,Ba2CuSi2O7,0.17859999999999987
mvc-1739,Ba2CuSn2F14,1.0589
mp-560502,Ba2CuTeO6,0.17870000000000008
mp-561558,Ba2CuWO6,0.05209999999999981
mp-545659,Ba2DyBiO6,1.7248000000000006
mp-1214746,Ba2DyCl7,4.9185
mp-1105698,Ba2DyGaSe5,1.8192
mp-1105922,Ba2DyGaTe5,0.40080000000000027
mp-1106127,Ba2DyInSe5,1.1164999999999998
mp-1189860,Ba2DyInTe5,0.7002000000000002
mp-12640,Ba2DyNbO6,2.8514
mp-6192,Ba2DySbO6,3.4688
mp-1206435,Ba2DyTaO6,3.3774
mp-1205693,Ba2DyUO6,0.8102999999999998
mp-1214824,Ba2Er2CuPtO8,0.2252000000000001
mp-1228586,Ba2Er2Zn8O13,1.3866999999999998
mp-651358,Ba2ErCl7,4.9184
mp-1105790,Ba2ErGaSe5,1.8307
mp-1105724,Ba2ErGaTe5,0.4095
mp-1188122,Ba2ErInSe5,1.1791
mp-1106146,Ba2ErInTe5,0.7431000000000001
mp-6653,Ba2ErNbO6,2.8560000000000003
mp-6621,Ba2ErRuO6,0.07299999999999995
mp-6231,Ba2ErSbO6,3.3776
mp-1205803,Ba2ErTaO6,3.3886000000000003
mp-1206292,Ba2ErUO6,0.8218999999999994
mp-504674,Ba2EuReO6,0.002299999999999969
mp-21370,Ba2EuSbO6,0.0021999999999997573
mp-1214722,Ba2Fe2ClF7,3.5076
mvc-12243,Ba2Fe2CuF14,0.29579999999999984
mp-1196071,Ba2Fe2O5,1.6103
mp-554327,Ba2Fe2S2OF2,2.0466
mp-561844,Ba2Fe2Se2OF2,1.9443
mp-553998,Ba2Fe3F10,3.4795
mp-735530,Ba2Fe3P6HO22,2.5383
mp-1228606,Ba2Fe5BiPb2O13,1.0736999999999997
mp-652683,Ba2Fe6O11,1.6653
mp-1228686,Ba2Fe8Ni3(SbO11)2,0.7587999999999999
mp-1202506,Ba2FeBiS5,0.6204000000000001
mp-1214726,Ba2FeBrO3,1.3185000000000002
mp-1228629,Ba2FeCoClF7,2.7733
mp-562025,Ba2FeCoF9,2.0227
mp-1190820,Ba2FeGe2O7,2.0075000000000003
mp-561699,Ba2FeO4,0.4064000000000001
mp-1199946,Ba2FeSbS5,0.5065
mp-1228575,Ba2Ga11BiO20,2.9799
mp-18421,Ba2Ga2S5,2.7747
mp-778485,Ba2Ga6O11,2.6626000000000003
mp-1195309,Ba2GaAsSe5,2.0714
mp-1201906,Ba2GaBiS5,2.3292
mp-758662,Ba2GaP4HO14,5.0374
mp-1199702,Ba2GaS4,1.8731
mp-1203806,Ba2GaSbS5,2.2899000000000003
mp-1195574,Ba2GaSe4,1.4209
mp-1202971,Ba2Gd2Si4O13,3.2919
mp-866304,Ba2GdB2ClO6,3.1318
mp-8986,Ba2GdC2(O2F)3,3.0692
mp-29084,Ba2GdCl7,2.4275
mp-19813,Ba2GdCu3O7,0.03730000000000011
mp-1190156,Ba2GdGaSe5,1.2709
mp-1105573,Ba2GdGaTe5,0.6713000000000005
mp-1078907,Ba2GdMoO6,0.9705999999999996
mp-19996,Ba2GdNbO6,2.6514
mp-753668,Ba2GdSbO6,3.4839
mp-1205549,Ba2GdTaO6,3.2907
mp-1205845,Ba2GdUO6,0.7865000000000002
mp-13922,Ba2Ge,0.0007999999999999119
mp-1197017,Ba2Ge(Sb2S5)2,1.4007999999999998
mp-570803,Ba2Ge(TeSe)2,0.8347000000000002
mp-18335,Ba2Ge2Se5,1.2918
mp-17885,Ba2Ge2Te5,0.6240999999999999
mp-1190188,Ba2Ge5Ir4,0.2786999999999997
mp-8195,Ba2GeAs2,0.5171000000000001
mp-780263,Ba2GeO4,4.176399999999999
mp-8194,Ba2GeP2,0.6755
mp-540805,Ba2GeS4,2.2853
mp-11902,Ba2GeSe4,1.4002
mp-542783,Ba2H14C4O15,3.5253
mp-1198374,Ba2H14Cl4O15,2.6456
mp-1215145,Ba2H2C4O9,3.2949
mp-1195529,Ba2H2Pd(S5O17)2,1.5659999999999998
mp-1018651,Ba2H3I,2.24
mp-1193896,Ba2H4Pd,1.5631000000000002
mp-697044,Ba2H6Os,1.9655
mp-643253,Ba2H6Pt,1.7507
mp-697038,Ba2H6Ru,1.8699
mp-1200998,Ba2H8PtO8,2.2876
mp-1198408,Ba2HRu3O10,0.02430000000000021
mp-756180,Ba2Hf7O16,4.0367
mp-754363,Ba2HfO4,3.4370000000000003
mp-9321,Ba2HfS4,0.8648000000000002
mp-1095904,Ba2HgAu,0.2664
mp-1097574,Ba2HgGe,0.17609999999999992
mp-18008,Ba2HgS3,1.3556
mp-1214783,Ba2Ho2CuPtO8,0.2056
mp-558195,Ba2HoB2ClO6,4.0836
mp-1214684,Ba2HoCl7,4.9389
mp-12641,Ba2HoNbO6,2.8516
mp-6609,Ba2HoRuO6,0.08360000000000012
mp-6687,Ba2HoSbO6,3.4155
mp-13000,Ba2HoTaO6,3.4479999999999995
mp-1205585,Ba2HoUO6,0.8161000000000005
mp-551835,Ba2I2O,3.1127
mp-1228367,Ba2IBrF2,4.3562
mp-20546,Ba2In2O5,0.919
mp-1194952,Ba2In2Si3SO10,2.882000000000001
mp-1228393,Ba2InBiO6,0.008700000000000152
mp-864638,Ba2InBiS5,1.4485000000000006
mp-1105202,Ba2InBiSe5,1.1107
mp-555212,Ba2InBrO3,1.8283000000000005
mp-558243,Ba2InClO3,1.9145
mp-1228360,Ba2InCuO4,1.0694
mp-1106089,Ba2InGaO5,1.4190000000000005
mp-19956,Ba2InO3F,2.0466999999999995
mp-1207040,Ba2InOsO6,0.4183000000000003
mp-616601,Ba2InRuO6,0.3647999999999998
mp-1206536,Ba2InSbO6,0.5109000000000004
mp-1203298,Ba2InSbTe5,0.7436999999999996
mp-695403,Ba2La2MgTi3O12,1.9234
mp-566048,Ba2La2Mn(WO6)2,1.5055000000000005
mp-1214651,Ba2La2Mn4O11,0.04789999999999939
mp-1228484,Ba2La2Ni(WO6)2,3.2975000000000003
mp-768263,Ba2La2O5,2.4337000000000004
mp-41236,Ba2La2Zn(WO6)2,3.0862
mp-686674,Ba2La3Si3O12F,4.109400000000001
mp-705476,Ba2La3Ti2Cr3O15,1.4871999999999996
mp-1228754,Ba2La3Ti3NbO15,2.8193
mp-1228650,Ba2La4Ti5O18,2.3691999999999998
mp-744094,Ba2La6Mg4Ti3WO24,2.1693
mp-553874,Ba2LaAg5S6,1.4623000000000004
mp-1078409,Ba2LaBiO6,2.2033
mp-18111,Ba2LaC3O9F,3.9314
mp-772955,Ba2LaCl7,4.1371
mp-772141,Ba2LaI7,2.5893
mp-553281,Ba2LaNbO6,3.0242000000000004
mp-12911,Ba2LaRuO6,0.2341999999999995
mp-551269,Ba2LaSbO6,3.9633
mp-13055,Ba2LaTaO6,3.6208
mp-1205700,Ba2LaUO6,0.7919999999999998
mp-6075,Ba2Li(BO2)5,4.9517000000000015
mp-555958,Ba2Li3(PO3)7,5.4510999999999985
mp-1228762,Ba2Li3Ho3(WO4)8,3.2107
mp-1228731,Ba2Li3La3(MoO4)8,2.6806
mp-567658,Ba2Li3NbN4,2.3632000000000004
mp-573677,Ba2Li3TaN4,2.3976999999999995
mp-1228739,Ba2Li3Y3(MoO4)8,2.3707000000000003
mp-1228802,Ba2Li3Y3(WO4)8,2.9556
mp-1197768,Ba2LiAl(CN2)4,4.1427
mp-1200459,Ba2LiB10O19,0.023400000000000032
mp-1095977,Ba2LiCd,0.13409999999999989
mp-17491,Ba2LiGe3,0.09699999999999998
mp-1096603,Ba2LiHg,0.13019999999999987
mp-1207120,Ba2LiIO6,2.056
mp-1093728,Ba2LiIn,0.09460000000000024
mp-1096727,Ba2LiMg,0.04809999999999981
mp-10555,Ba2LiReN4,1.7902
mp-6270,Ba2LiReO6,1.8198000000000003
mp-15521,Ba2LiSi3,0.09229999999999984
mp-1096688,Ba2LiTl,0.6390999999999998
mp-763824,Ba2LiVP2O9,2.044
mp-21868,Ba2Lu(CuO2)3,0.11359999999999992
mp-1214855,Ba2Lu2CuPtO8,0.24549999999999986
mp-1228639,Ba2LuB2ClO6,4.1226
mp-1078394,Ba2LuBiO6,1.4445
mp-12644,Ba2LuNbO6,2.8479
mp-6145,Ba2LuRuO6,0.11160000000000014