task_id,composition,band_gap
mp-29055,KSb2,0.21119999999999986
mp-27389,KSb2F7,4.1611
mp-556756,KSb2PO8,2.2122
mp-31001,KSb3O5,3.1078999999999994
mp-27211,KSb4F13,4.6612
mp-757115,KSb5O13,0.7755000000000001
mp-1193058,KSbC6Br5,0.17079999999999995
mp-1211377,KSbCl6,1.9822
mp-23634,KSbClF3,4.4254
mp-5079,KSbF4,4.4258
mp-556888,KSbF6,4.9125999999999985
mp-566448,KSbMoO5,3.3347
mp-556904,KSbN(OF)3,3.2613000000000003
mp-10417,KSbO2,2.0081999999999995
mp-547792,KSbO3,2.6657
mp-1199953,KSbP(O2F)2,0.07189999999999996
mp-1223347,KSbWO6,2.7183
mp-866638,KSc(BH4)4,4.8553
mp-18837,KSc(MoO4)2,3.6132
mp-1211497,KSc(WO4)2,3.1169
mp-28439,KSc2F7,5.706099999999998
mp-695800,KScAs2(HO4)2,3.86
mp-23808,KScBP2HO9,4.8467
mp-28778,KScF4,6.0931
mp-554515,KScH4(C2O5)2,3.262
mp-8188,KScO2,3.6247
mp-1205684,KScTl2F6,4.6207
mp-9268,KSe,0.7039
mp-1180659,KSe3,0.8306000000000001
mp-553978,KSeNO2,2.7877
mp-9205,KSeO2F,3.3214
mp-1202593,KSeO4,0.010099999999999998
mp-1217,KSi,1.2619000000000002
mp-1019889,KSi2BO6,5.3234
mp-1196639,KSi2BP(H3C)9,2.7808
mp-1201235,KSi2HO5,4.774299999999998
mp-1029418,KSi2N3,3.7106
mp-1197910,KSi4H27(C3O)3,2.7505
mp-1223419,KSi5BO13,0.32280000000000003
mp-1029584,KSi5N7,3.4174999999999995
mp-1199586,KSi7H62C25O6,0.972
mp-866651,KSiBiS4,2.0549
mp-28695,KSiH3,2.5736
mp-707195,KSiHO3,4.768199999999998
mp-1199261,KSiO3,0.2088
mp-772843,KSiPCO7,5.167999999999999
mp-14721,KSiSbO5,2.8079
mp-1211301,KSm(CO3)2,4.1831000000000005
mp-1211306,KSm(MoO4)2,3.2999
mp-17439,KSm(PO3)4,5.2969
mp-1211618,KSm(SO4)2,5.6898
mp-1211681,KSm(SeO4)2,3.3969
mp-1211333,KSm(WO4)2,3.513
mp-1211642,KSm2Br5,0.4468000000000001
mp-568044,KSm2Cl5,0.4721000000000002
mp-1211516,KSm2Cl7,4.4694
mp-567322,KSm2Sb3Se8,0.5093999999999999
mp-17697,KSmF4,7.1568
mp-11634,KSmGeSe4,1.6287
mp-1203240,KSmH2S2O9,5.5076
mp-759030,KSmH4(N2O7)2,3.3023
mp-1178133,KSmO2,3.8625
mp-554581,KSmP2S7,2.6285000000000003
mp-542266,KSmP3HO10,5.4434
mp-557232,KSmPdO3,0.7336
mp-15783,KSmS2,2.2759
mp-1211703,KSmS2O9,0.8407
mp-1006891,KSmSe2,1.8906000000000005
mp-9036,KSmTe2,1.2623000000000002
mp-1211326,KSmTiO4,2.3327
mp-542374,KSn,0.7336999999999998
mp-1180718,KSn2(PO4)3,3.4416
mp-23541,KSn2Br5,2.3618
mp-23539,KSn2Cl5,3.0071
mp-686016,KSn2F5,2.9857
mp-708999,KSn2H36C12(Se2N)3,1.8887
mp-23534,KSn2I5,1.5097999999999998
mp-6755,KSn4(PO4)3,3.7643
mp-3481,KSnAs,0.3397000000000001
mp-15107,KSnAsO5,2.1357
mp-554119,KSnAsS5,1.7082
mp-1223460,KSnAuS3,1.6452999999999998
mp-1223442,KSnAuSe3,1.41
mp-1097014,KSnBr3,2.2744
mp-28774,KSnF3,3.5114
mp-1097015,KSnI3,1.941
mp-1079672,KSnN3,0.28590000000000004
mp-752538,KSnO2,2.1921
mp-772809,KSnPCO7,2.6819
mp-541459,KSnPO5,3.0231000000000003
mp-1193412,KSnPS4,1.9205
mp-541379,KSnS4,1.4453
mp-557399,KSnSO4F,3.8906
mp-3486,KSnSb,0.26460000000000017
mp-1211375,KSr2Br5,4.2432
mp-866639,KSr2Cd2Sb3,0.2028000000000003
mp-1211382,KSr2Cl5,5.2334999999999985
mp-1211448,KSr2I5,3.6575
mp-1223455,KSr2Nb5O15,2.2812
mp-1211577,KSr2Si4O10F,4.8546
mp-554346,KSr4(BO3)3,4.173
mp-1224714,KSr4Si8H17O29,4.2633
mp-1211967,KSr6Sc(SiO4)4,4.2903
mp-703559,KSrAs(H4O3)4,4.3016
mp-1223450,KSrB(PO4)2,5.2819
mp-556250,KSrB5O9,5.1442000000000005
mp-865427,KSrCO3F,4.0934
mp-1205548,KSrI3,3.731
mp-579086,KSrNb2O6F,1.7925999999999995
mp-17975,KSrPO4,5.0889
mp-628859,KSrVO4,3.8426
mp-571288,KTa(AgSe2)2,1.7478
mp-555150,KTa(BO3)2,3.6133
mp-6013,KTa(CuSe2)2,1.6646
mp-540631,KTa(GeO3)3,3.5077000000000003
mp-1211285,KTa(PO4)2,3.3596000000000004
mp-773066,KTa2PO8,3.0048000000000004
mp-1200554,KTa3(TeO6)2,2.9227
mp-27169,KTa5O13,3.1482
mp-1223615,KTa5Pb2O15,2.4247
mp-1211395,KTaF6,6.2549
mp-14377,KTaGeO5,3.9009
mp-570755,KTaN2,2.656
mp-13792,KTaP4O13,3.6681
mp-683955,KTaPS6,1.7349
mp-31308,KTaS5,1.5866000000000002
mp-1223321,KTaSi2O7,3.6192
mp-568318,KTaTe3,0.41800000000000015
mp-1223394,KTaTiO5,3.037
mp-1194599,KTaV2O8,2.6994
mp-1223468,KTaW2O9,1.4132000000000002
mp-1223039,KTaWO6,3.2
mp-1223034,KTaWO7,1.0319
mp-1211249,KTb(CO3)2,4.2959
mp-1211409,KTb(MoO4)2,3.6109
mp-1181143,KTb(N2O7)2,1.294
mp-16773,KTb(PO3)4,5.319
mp-1190561,KTb(WO4)2,3.3691
mp-1211526,KTb2Cl7,4.5397
mp-699636,KTb2Cu(MoO4)4,1.1595
mp-11605,KTb2CuS4,0.9949
mp-1211521,KTb2F7,6.8607000000000005
mp-17838,KTb3F10,6.9507
mp-565377,KTbCr2O8,2.7192
mp-12011,KTbGeS4,2.4464
mp-1211742,KTbH(SO4)2,3.2298
mp-1199480,KTbH2C2SO9,3.0354
mp-1197975,KTbP2H4O9,4.3767
mp-1180947,KTbRuC6(N3O2)2,1.0213
mp-999129,KTbS2,2.3136
mp-28408,KTcCl3,1.6961
mp-7621,KTcO4,3.1886
mp-2072,KTe,0.6627000000000001
mp-29144,KTe2F9,4.5077
mp-554818,KTe3O6F,3.0664
mp-4648,KTeF5,5.2046
mp-555202,KTeHOF4,5.027
mp-1196231,KTeIO9,0.1058
mp-557231,KTeO2F,3.7203
mp-1192052,KTeO4,0.5296000000000001
mp-559932,KTeOF3,4.2121
mp-1188829,KTeP2,1.4070000000000005
mp-568904,KTh(SbSe3)2,0.6898
mp-540876,KTh2(PO4)3,4.5918
mp-1211350,KTh2F9,6.4348
mp-25169,KTh2V3O12,3.3008999999999995
mp-27185,KTh6F25,6.4663
mp-12365,KThCuS3,2.0422
mp-1212186,KThN5O17,0.20740000000000006
mp-559645,KThP3O10,5.0528
mp-541238,KTi2(PO4)3,2.5455
mp-1223218,KTi2BiO6,1.6871999999999998
mp-1203037,KTi2H2F11,4.424
mp-1223312,KTi3NbO9,2.5039
mp-1203502,KTi4Cl11,0.058600000000000214
mp-6488,KTiAsO5,3.0608
mp-24811,KTiH2S2O9,0.2205000000000004
mp-1223343,KTiNbO5,2.6972
mp-1223210,KTiO2F,0.8782999999999999
mp-17234,KTiP2O7,0.13399999999999945
mp-772844,KTiPCO7,2.6381
mp-560977,KTiPS5,1.2200000000000002
mp-571544,KTiPSe5,0.8898999999999997
mp-1211776,KTiSi3O11,0.589
mp-863730,KTl,0.0202
mp-12334,KTl(CN)4,5.5138
mp-1211257,KTl(SO4)2,2.069
mp-1205672,KTl2CrF6,3.4901
mp-1206641,KTl2GaF6,4.551
mp-560959,KTl2MoF6,2.5052000000000003
mp-1093930,KTl2Pb,0.09499999999999977
mp-1111155,KTlBr3,0.2974
mp-28048,KTlBr4,1.8089
mp-1111296,KTlCl3,0.902
mp-27385,KTlCl4,2.3138
mp-1111295,KTlF3,1.7921
mp-27209,KTlF4,2.3067
mp-27716,KTlO,1.1655000000000002
mp-8175,KTlO2,0.8835999999999999
mp-1211338,KTm(CO3)2,4.3865
mp-1211532,KTm(MoO4)2,3.5578
mp-1211971,KTm(SO5)2,0.237
mp-865972,KTm2Cu3Se5,1.0509000000000004
mp-1211506,KTm2F7,7.0008
mp-1202753,KTmF4,6.8373
mp-753774,KTmO2,3.9743
mp-1211744,KTmP2O7,5.0016
mp-1202130,KU(SeO4)2,0.0364
mp-1225115,KU11(GeO19)2,0.2847000000000004
mp-560812,KU2(PO4)3,0.008500000000000174
mp-1181066,KU2Cl2O9,0.08640000000000002
mp-504555,KU2F9,0.17140000000000022
mp-554037,KU2H5C4O15,2.117
mp-606691,KU2P3O14,2.3916
mp-1223557,KU2SbSe8,0.009299999999999642
mp-1211824,KU6F25,0.03299999999999992
mp-1181495,KUC3O10,0.6187
mp-1095429,KUClO3,1.7303000000000002
mp-555190,KUCrO6,1.6241
mp-1238290,KUH3SO8,2.0902
mp-1205215,KUHSO7,2.1575
mp-554888,KUI3O11,2.2614
mp-554783,KUN3O11,2.3253
mp-554887,KUNbO6,1.9426
mp-4126,KUO3,0.44540000000000013
mp-721081,KUP(H2O3)3,2.4731
mp-557505,KUP3O11,2.3388
mp-1196442,KUSeO8,0.052900000000000065
mp-560631,KUSi2O7,0.5872000000000002
mp-1211875,KUSiHO6,2.1177
mp-1189398,KUSiO7,0.2775000000000001
mp-1204908,KUVIO10,0.3978999999999999
mp-645555,KUVO6,1.9565
mp-6376,KV(CuS2)2,1.0730000000000004
mp-10091,KV(CuSe2)2,0.8213000000000004
mp-630491,KV(IO4)2,2.7052
mp-561691,KV(SO4)2,2.1392
mp-853245,KV12O30,0.3667
mp-768095,KV13O20,0.5906999999999996
mp-1211316,KV2AgO6,2.1499
mp-567086,KV2CrO7,2.1199000000000003
mp-1103811,KV2Fe(AgO4)2,1.9542
mp-743936,KV2H2C8N2(OF)5,0.5962
mp-643841,KV2P2H4O13,0.5438000000000001
mp-1195351,KV2PO11,0.2493
mp-566975,KV2PO8,2.2966
mp-19496,KV2SbO8,2.7796000000000003
mp-1203567,KV2SeO7,2.0428
mp-1223432,KV3(PO4)4,1.9384
mp-1223484,KV3(PbO3)4,3.0014
mp-559650,KV3(SeO6)2,2.3366
mp-566090,KV3Cd4O12,2.3544
mp-1192668,KV3Ge2O9,1.6378
mp-19172,KV3O8,2.0824
mp-554189,KV3P4O17,1.1557
mp-579731,KV4Ag11O16,0.9071999999999998
mp-566982,KV4P7O24,1.8430000000000004
mp-776014,KV5Co(H8O11)2,2.0525
mp-1204947,KV5NiO22,0.05250000000000021
mp-1182650,KV5Zn(H8O11)2,2.4918
mp-1198255,KV5ZnO22,0.06979999999999986
mp-763874,KV6O14,1.0927
mp-1202651,KVAsO5,1.6219
mp-25623,KVBP2HO9,2.036
mp-578796,KVCdO4,3.0905
mp-1205604,KVCl3,0.3748999999999998
mp-557257,KVF3,2.0744
mp-560997,KVF4,1.9296
mp-1224302,KVFeP2H5O11,1.7260999999999995
mp-1205004,KVH24(SO10)2,2.6677
mp-744600,KVH2SO7,1.9434
mp-1196510,KVH2SeO7,2.6155
mp-744674,KVH4O7,2.7133
mp-566393,KVH6SO9,2.9131
mp-1201848,KVH6SeO9,2.766
mp-644015,KVHSe2O7,2.2311
mp-1211463,KVMoO6,2.9195
mp-1080848,KVN2,0.8387
mp-754988,KVO2,1.4364
mp-18815,KVO3,3.0372000000000003
mp-1180691,KVO4,0.5989
mp-1195873,KVOF3,2.7368
mp-566952,KVOF4,3.6597
mp-25170,KVP2O7,2.0684
mp-10518,KVP2S7,0.07159999999999966
mp-773290,KVPCO7,1.8136
mp-735504,KVPHO6,2.4219999999999997
mp-1239185,KVPO4F,2.0493
mp-565746,KVPO5,3.0252
mp-1211800,KVPO6,0.3762
mp-562135,KVPbO4,3.3711
mp-649654,KVS2O9,1.8158
mp-566353,KVSO6,1.8687
mp-531952,KW3Br7,2.6737
mp-566462,KWNClF5,3.507
mp-554762,KXeO3F,2.8936
mp-1197756,KY(BH4)4,6.0454
mp-559781,KY(CO)8,2.0998
mp-1211274,KY(CO3)2,4.2169
mp-1204855,KY(CO3)4,0.3128
mp-758742,KY(H2N)4,2.6892
mp-19499,KY(MoO4)2,3.589
mp-1223315,KY(NbCl3)6,1.0799
mp-18661,KY(PO3)4,5.3283999999999985
mp-571057,KY(PSe3)2,1.8811
mp-1194569,KY(SeO3)2,4.2636
mp-1194980,KY(TeO3)2,3.1366000000000005
mp-510264,KY(WO4)2,3.2428
mp-1211540,KY2Cl7,4.4272
mp-11602,KY2CuS4,0.9919999999999995
mp-1211492,KY2F7,6.8394
mp-2943,KY3F10,6.930300000000001
mp-1211247,KYBeF6,7.3892
mp-28726,KYF4,6.9097
mp-863755,KYGeS4,2.4167
mp-1196572,KYH14(C2O3)6,2.3023
mp-698263,KYH4C4O9,1.1372
mp-1035962,KYMg14O16,1.8740000000000008
mp-1037710,KYMg30O32,4.3245000000000005
mp-8409,KYO2,3.9739
mp-1211914,KYP2H4O9,5.0079
mp-554508,KYP2O7,5.065
mp-1006888,KYS2,2.3337000000000003
mp-863754,KYSiS4,2.7932
mp-962072,KYSn,0.7193
mp-1223270,KYTa2O7,2.1037
mp-16763,KYTe2,1.3029000000000002
mp-1198247,KYb(BH4)4,0.3921999999999999
mp-616490,KYb(PO3)4,0.04219999999999996
mp-1211769,KYb(SO5)2,0.002299999999999969
mp-1203408,KYb2Cd2Sb3,0.047400000000000116
mp-1211270,KYbBr3,4.5123
mp-1197442,KYbF4,0.0029999999999996696
mp-1206621,KYbI3,3.6219
mp-1203140,KYbP2H4O9,0.1037
mp-18184,KYbP2O7,0.028000000000000025
mp-1191459,KZn(BO2)3,4.4837
mp-1211588,KZn(H2Br)3,1.4001
mp-1211332,KZn(PO3)3,4.4863
mp-1194488,KZn2(PO4)2,0.011199999999999988
mp-1078186,KZn2BCl2O3,3.8404
mp-1192840,KZn2CdB2O6F,2.7215
mp-1193724,KZn2P2HO8,3.9975
mp-1196794,KZn2Ru2C4(ClO12)2,0.000199999999999978
mp-6652,KZn4(BO3)3,2.8165
mp-560419,KZn4(PO4)3,3.83
mp-863678,KZn4(SbO4)3,2.1239000000000003
mp-1087504,KZn4P3,0.5004
mp-1193473,KZn4SbO7,0.8535999999999999
mp-7421,KZnAs,0.2762
mp-1194994,KZnAs3F18,4.2814000000000005
mp-1105530,KZnB(H2Cl)2,4.8819
mp-554673,KZnB(PO4)2,4.7598
mp-1193013,KZnBr3O2,1.8938
mp-1180854,KZnCl3O2,1.6833
mp-1223207,KZnCuTe2,0.8298999999999994
mp-5878,KZnF3,3.6889
mp-720912,KZnH4Br3O2,3.6805
mp-1223305,KZnH5(SO5)2,4.778499999999998
mp-1211419,KZnHCl3,1.0087000000000002
mp-1193025,KZnI3O2,0.8451
mp-1029336,KZnN,0.5486999999999999
mp-7437,KZnP,0.8395999999999999
mp-1195963,KZnP(CO3)2,2.4061
mp-24654,KZnP2H5O9,4.4686
mp-653973,KZnPO4,3.8873
mp-7438,KZnSb,0.4468000000000001
mp-1180713,KZr(PO4)2,0.037800000000000056
mp-541282,KZr2(AsO4)3,3.9960000000000004
mp-540577,KZr2(PO4)3,4.2822000000000005
mp-1211525,KZr6BI14,0.7133000000000003
mp-570066,KZr6CCl15,1.1123
mp-1212009,KZr6MnCl14,1.2003
mp-1211782,KZr6NCl15,0.016999999999999904
mp-554117,KZrCuF7,0.2299
mp-9317,KZrCuS3,0.5924999999999998
mp-9318,KZrCuSe3,0.2256999999999998
mp-556689,KZrF5,5.5642
mp-555482,KZrH2OF5,5.8343
mp-541071,KZrP2HO8,4.1955
mp-757002,KZrPCO7,3.8916
mp-14985,KZrPdF7,0.6681
mp-556631,KZrSnF7,4.0133
mp-40204,KZrTl2OF5,3.1105
mp-554835,KZrVF7,2.4296
mp-558928,KrF2,2.7303
mp-568896,La(AlBr4)3,2.6083
mp-28993,La(AuF4)3,2.1504
mp-4658,La(BO2)3,4.542
mp-31321,La(C2N3)3,3.5544
mp-1212032,La(ClO)3,0.8121999999999999
mp-1180968,La(ClO3)3,0.3023
mp-780362,La(ClO4)3,4.4896
mp-973441,La(ErS2)3,1.0587
mp-30073,La(FeSb3)4,0.16019999999999968
mp-625394,La(HO)3,3.7164
mp-1188862,La(HoS2)3,1.0748999999999995
mp-566599,La(IO3)3,3.1367
mp-1203336,La(IO3)4,0.023400000000000087
mp-1106254,La(LuS2)3,1.0595999999999997
mp-1199742,La(Mo4O7)2,0.8643000000000001
mp-30925,La(NO2)3,2.2049000000000003
mp-1205242,La(NO3)3,3.1259
mp-1181009,La(NO5)3,0.19530000000000006
mp-9646,La(PO3)3,4.6293
mp-31418,La(SbO3)3,1.4863999999999995
mp-1199322,La(SeO3)2,0.07010000000000005
mp-29186,La(SiP3)2,0.8978000000000002
mp-1223306,La(Tl3Te2)3,0.8201999999999998
mp-1106294,La(TmS2)3,1.0598999999999998
mp-1211293,La(YS2)3,1.0782999999999996
mp-1190422,La(YbS2)3,0.01780000000000026
mp-866648,La(ZnAs)3,0.1761999999999997
mp-1211229,La(ZnP)3,0.2769000000000004
mp-531302,La10(Si2O9)3,3.3825000000000003
mp-758316,La10Bi8O27,1.2729
mp-1223627,La10MgTi7O30,2.329299999999999
mp-561194,La10S14O,1.9411
mp-558229,La10S19,0.7225999999999999
mp-558535,La10Se14O,1.5518999999999998
mp-8866,La10Se19,0.5750000000000002
mp-1195612,La11(MnC6)3,0.3475000000000001
mp-1204948,La11Hg45,0.09920000000000062
mp-690363,La11Mn12O36,0.005999999999999339
mp-997527,La11V12O36,0.7995999999999999
mp-505265,La11V4O26,1.0184999999999995
mp-1211847,La12Co6Pb,0.06709999999999994
mp-1223620,La12Ge5S28,0.9976000000000004
mp-705751,La12Mn11O36,0.04159999999999986
mp-37843,La12Ni6O25,0.0602999999999998
mp-1223487,La12Si4SnS28,1.4098000000000006
mp-1223580,La12Sn5S28,1.4437999999999995
mp-695367,La13Al12Si18(N13O5)3,0.9276
mp-1205088,La13Hg58,0.08769999999999989
mp-705798,La14Mn15O48,0.01609999999999978
mp-1197618,La16(Mo3O8)7,0.6152000000000006
mp-758138,La16Cu8O31,0.2525999999999993
mp-695096,La16Mg2Ga14O47,2.7936999999999994
mp-866690,La17Al4(Si3N11)3,1.8771000000000004
mp-698635,La17Mn18O54,0.03560000000000052
mp-868889,La18Ni12O41,0.2413999999999996
mp-766364,La19(RuO6)8,0.033199999999999896
mp-703350,La2(GeO3)3,3.0791000000000004
mp-578938,La2(MoO4)3,3.6508
mp-1180833,La2(SO7)3,0.5574
mp-4350,La2(SeO3)3,3.5120000000000005
mp-1201286,La2(SeO8)3,0.0449
mp-1207309,La2(SiIr)3,0.07840000000000003
mp-756888,La2(SiO3)3,4.3074
mp-25192,La2(WO4)3,4.048100000000002
mp-1224734,La20S29O,1.9503000000000004
mp-662600,La20Ti11(S22O3)2,0.2850999999999999
mp-1213625,La23Cd4Ni7,0.02470000000000017
mp-1178319,La24Ni16O55,0.052700000000000635
mp-759763,La26B8O51,3.4409
mp-1207354,La2AgAs3,0.05869999999999996
mp-1206336,La2AgBi3,0.14830000000000032
mp-1206475,La2AgSb3,0.12379999999999967
mp-768382,La2Al4O9,3.7106
mp-3817,La2Au5F21,1.8445
mp-752449,La2B4O9,4.4918999999999984
mp-1019892,La2B8O15,4.385699999999999
mp-19926,La2Be2GeO7,4.114299999999999
mp-28072,La2Be2O5,3.9238
mp-753102,La2Bi4O9,1.7390999999999996
mp-773100,La2BiO5,0.8297999999999996
mp-28571,La2Br5,0.29660000000000064
mp-1223223,La2BrClO2,3.8613
mp-1223241,La2C(NO)2,2.0526
mp-560490,La2C2N4O,3.3309
mp-1203957,La2C2S2O15,0.2489
mp-1181011,La2C3O17,0.5766
mp-567756,La2CN3Cl,1.8792
mp-579552,La2CO5,3.932999999999999
mp-770847,La2Cd2O5,1.3022000000000005
mp-1095862,La2CdIr,0.03690000000000016
mp-36395,La2CdS4,1.7847999999999995
mp-1206317,La2CdSb3,0.12810000000000032
mp-36733,La2CdSe4,1.0990000000000002
mp-674329,La2CdTe4,0.5282
mp-755450,La2Ce2O7,2.1894
mp-1223524,La2CeSi2S8I,0.17429999999999968
mp-1076438,La2Co2O5,0.6093999999999999
mp-1079800,La2Co2Se2O3,0.09309999999999974
mp-1096474,La2CoIr,0.20920000000000005
mp-1223259,La2CoNiO6,1.1425
mp-540693,La2CoO4,0.8839000000000006
mp-1223369,La2CrFeO6,2.1832000000000003
mp-1223257,La2CrMoO6,1.8097000000000003
mp-565616,La2CrO6,2.1814
mp-18267,La2Cu(SeO3)4,0.4289999999999998
mp-1223243,La2Cu2SeSO2,1.6113000000000008
mp-1195675,La2CuBiS5,1.0925000000000002
mp-31273,La2CuS4,1.6292
mp-1105298,La2CuSbS5,1.5791000000000004
mp-1178267,La2EuO4,0.5410000000000004
mp-677272,La2EuS4,0.4863999999999997
mp-1078132,La2Fe(SeO)2,2.2292000000000005
mp-14127,La2Fe14C,0.004599999999999938
mp-1099626,La2Fe2O5,0.8379000000000003
mp-559253,La2Fe2Se2O3,2.8974
mp-771697,La2Ga4O9,2.698
mp-1223350,La2GaFeO6,2.3233999999999995
mp-568036,La2GaN3,1.8088
mp-21532,La2Ge2O7,3.5542
mp-570597,La2GeI2,0.36700000000000005
mp-638261,La2GeO5,4.0154999999999985
mp-622086,La2GeS5,1.9676
mp-759211,La2H22S6N6O23,4.3906
mp-12533,La2Hf2O7,4.232799999999999
mp-1078675,La2HfNiO6,1.9902000000000009
mp-768234,La2HfO5,4.0116
mp-1197516,La2HfSe5,0.8016999999999994
mp-1096142,La2HgIr,0.05259999999999998
mp-779287,La2HgO4,2.2372
mp-30282,La2I5,0.17720000000000002
mp-1198393,La2I6O19,0.6452999999999998
mp-1224037,La2InCuS5,0.8934999999999995
mp-21390,La2InCuSe5,0.5091000000000001
mp-1096128,La2IrRh,0.1858
mp-866666,La2Mg(NiH4)2,0.8984000000000005
mp-706447,La2Mg3H48(NO5)12,3.6847
mvc-15464,La2MgCoO6,0.3352000000000004
mvc-13693,La2MgFeO6,1.3979999999999997
mp-11585,La2MgGeO6,0.42329999999999934
mp-770574,La2MgI8,2.1115000000000004
mp-19406,La2MgMnO6,1.9571000000000005
mp-1211365,La2MgNbO6,0.20060000000000144
mvc-15460,La2MgNiO6,1.4338999999999995
mp-755142,La2MgO4,3.3754000000000013
mp-1232227,La2MgS4,2.8857
mp-1232041,La2MgSe4,2.5113000000000003
mvc-13582,La2MgSnO6,4.092899999999998
mp-6457,La2MgTiO6,3.1450000000000005
mvc-11733,La2MgVO6,1.7109000000000003
mp-1223208,La2MgZrO6,2.9561
mp-1196301,La2Mn(SeO)2,1.6504000000000003
mp-1099627,La2Mn2O5,0.04209999999999958
mp-1079069,La2Mn2Se2O3,1.8541
mp-1223293,La2Mn3Sb3O14,0.8079999999999998
mp-19208,La2MnCoO6,0.02150000000000052
mp-1223342,La2MnCrO6,0.5754000000000001
mp-1223250,La2MnFeSe2O3,1.2915
mp-1223352,La2MnGaO6,1.0217
mp-1223338,La2MnRhO6,0.2884000000000002
mp-565856,La2MnVO6,1.1643999999999997
mvc-13688,La2MnZnO6,1.5884
mp-705680,La2Mo2O9,3.0657
mp-554696,La2Mo4O15,3.2377
mp-19300,La2MoO6,2.7924
mp-1103604,La2NCl3,3.4185
mp-778375,La2Nb2N2O5,1.6052999999999995
mp-1211629,La2Nb3(SO4)2,0.3587999999999996
mp-1211522,La2NbNiO6,0.20340000000000025
mp-1223331,La2Nd(GaO3)3,3.4206000000000003
mp-1076121,La2Ni2O5,0.5829999999999993
mp-25711,La2NiO4,1.5036000000000005
mp-1095626,La2P2AuO,0.049099999999999255
mp-1195921,La2P3(HO3)3,4.5019
mp-605691,La2P3H7O11,4.4891000000000005
mp-771240,La2P4O13,4.92
mp-676816,La2PbF8,5.3332
mp-36538,La2PbS4,2.1549
mp-33406,La2PbSe4,1.8284
mp-560340,La2Pd2O5,1.1382000000000003
mp-755026,La2Pt2O7,0.9644000000000004
mp-1078601,La2ReNiO6,0.38180000000000014
mp-27539,La2ReO5,1.0111999999999997
mp-755887,La2S2O,2.4295
mp-1181395,La2S3O16,1.0679
mp-4511,La2SO2,3.0609
mp-4078,La2SO6,4.726399999999999
mp-1206980,La2Sb3Au,0.12199999999999987
mp-756689,La2SbO6,0.07399999999999984
mp-1202647,La2SbS5Br,1.5138999999999996
mp-1097046,La2Sc2O5,0.0708000000000002
mp-752418,La2Se2O,1.7862
mp-7233,La2SeO2,2.4067
mp-559088,La2Si(IO2)2,2.9986000000000006
mp-5732,La2Si2O7,4.7818999999999985
mp-1223272,La2Si2PbSe8,1.854
mp-866650,La2Si4CN6,2.3360000000000003
mp-1204122,La2SiC(NO2)2,3.7209999999999988
mp-5152,La2SiO5,4.458
mp-558724,La2SiS5,2.3415
mp-17834,La2SiSeO4,2.3069
mp-4086,La2Sn2O7,2.6591
mp-560740,La2SnS3O2,1.6742
mp-1104362,La2Ta2O9,0.2240000000000002
mp-14880,La2Ta3(SO4)2,0.8316999999999997
mp-1211581,La2Ta3(SeO4)2,0.8836999999999993
mp-559822,La2TaCl3O4,3.6843
mp-32755,La2Te3,0.9992
mp-565440,La2Te3MoO12,3.5810000000000004
mp-31249,La2Te4O11,3.3342
mp-675458,La2Te4Pb,1.2492
mp-1223414,La2Te6WO18,2.8258
mp-1227821,La2TeMo6O35,0.173
mp-4547,La2TeO2,2.0287
mp-17350,La2TeO6,2.9624
mp-753156,La2Th2O7,2.9227
mp-673677,La2Th3O9,3.0638000000000005
mp-756142,La2Th5O13,2.4128000000000007
mp-1173034,La2Th8O19,2.6651000000000007
mp-1195982,La2ThS5,1.4589
mp-1198974,La2ThSe5,1.1113999999999995
mp-706869,La2ThTa(ClO2)3,4.1453000000000015
mp-1223127,La2Ti2CoO8,2.0948
mp-767602,La2Ti2CrO9,0.8291000000000004
mp-1223151,La2Ti2CuO8,0.08370000000000033
mp-12192,La2Ti2O7,2.8595
mp-559747,La2Ti2SiO9,2.6201
mp-1223056,La2Ti2ZnO8,2.2343
mp-6000,La2Ti3(AgO5)2,1.9412000000000005
mp-1211253,La2Ti3(BiO6)2,2.0987
mp-1223172,La2Ti3CuO10,0.040299999999999336
mp-1223170,La2Ti3NiO10,2.0092
mp-758038,La2Ti3O9,2.1408
mp-1223063,La2Ti3ZnO10,2.0540000000000003
mp-1211314,La2TiCoO6,2.1423
mp-1223138,La2TiMnO6,1.8230999999999995
mp-1211325,La2TiNiO6,2.8404
mp-18051,La2TiO5,3.2886
mp-558528,La2TiZnO6,2.918200000000001
mp-760513,La2UO6,1.6446000000000005
mp-1223233,La2VFeO6,1.4842000000000004
mp-1078783,La2VReO6,0.16690000000000005
mvc-13672,La2VZnO6,1.6868
mp-774193,La2WO6,3.654
mp-675767,La2YbS4,2.1295
mp-1196943,La2Zn(SeO)2,2.4983000000000004
mp-772609,La2Zn2O5,1.5065
mvc-14594,La2ZnCoO6,1.120900000000001
mp-18129,La2ZnGa2S6O,2.5862000000000003