task_id,composition,band_gap
mp-1196126,Na4Be2Si6SnO20,0.33509999999999995
mp-23151,Na4BeAlSi4ClO12,4.6318
mp-779161,Na4Bi2B4SO16,0.07789999999999997
mp-779515,Na4Bi2C4SO16,2.0267
mp-857352,Na4Bi2O5,2.1576
mp-779878,Na4Bi2P(CO4)4,0.0695
mp-1221202,Na4Br(ClO4)3,4.8566
mp-28599,Na4Br2O,1.9831
mp-37947,Na4C2O5,2.7228
mp-13274,Na4CO4,2.1989
mp-542280,Na4Ca(PO3)6,5.1972000000000005
mp-1181353,Na4Ca2P8O35,0.6654999999999999
mp-1221206,Na4Ca2SiAs4,0.6289000000000002
mp-1221207,Na4Ca2SiP4,1.0078
mp-1221212,Na4Ca2SnP4,0.9166
mp-1210262,Na4Ca4Be4AlSi7(O6F)4,0.06529999999999991
mp-1221263,Na4Ca7MnSi12(HO9)4,4.117800000000001
mp-1173772,Na4CaFe4(PO4)6,2.1969000000000003
mp-720689,Na4CaTa4TiO15,2.0898
mp-1210416,Na4CaZr2TiSi4(O8F)2,3.3477999999999994
mp-556413,Na4Cd2Si3O10,2.7505
mp-1195487,Na4Cd3H2(C2O7)2,2.6421
mp-28851,Na4Cd3Se5,1.4673000000000005
mp-1221989,Na4Cd7(N5O6)6,2.8089999999999997
mp-8752,Na4CdP2,0.7385000000000002
mp-561448,Na4Ce(As2O7)2,1.5515
mp-1200345,Na4Ce2(Si4O11)3,0.12650000000000006
mp-1221245,Na4Co(MoO4)3,2.8121
mp-1221695,Na4Co12P8H4O37,0.07020000000000004
mp-1176472,Na4Co2C4SO16,0.004199999999999999
mp-779871,Na4Co2O5,0.8426
mp-735568,Na4Co3P4(H3O4)6,3.0663
mp-1202695,Na4Co3P4O15,2.8768
mp-24890,Na4Co7(PO4)6,2.3581000000000003
mp-1221350,Na4Co9(MoO4)12,0.5411
mp-613344,Na4CoAuO5,1.7823
mp-18762,Na4CoO3,1.1125999999999998
mp-31593,Na4CoO4,1.3568999999999998
mp-770560,Na4Cr2C4SO16,1.6368
mp-782637,Na4Cr2P(CO4)4,0.004400000000000071
mp-1199320,Na4Cr2P4O15,0.569
mp-775341,Na4CrH8SO7,2.4186
mp-18884,Na4CrO4,1.8877
mp-555821,Na4Cu(AsO4)2,0.6881000000000002
mp-565983,Na4Cu(MoO4)3,0.24230000000000015
mp-779142,Na4Cu2C4SO16,0.007199999999999984
mp-28789,Na4Cu2S3,2.0857
mp-1195054,Na4Cu4H18C8O23,0.4211
mp-762063,Na4Cu6O5,0.8289999999999997
mp-754399,Na4CuO3,0.3162999999999998
mp-707247,Na4CuP6(H4O11)2,0.7785
mp-1180606,Na4CuP6H22(N3O11)2,0.17789999999999995
mp-1199423,Na4CuTe2O29,0.01419999999999999
mp-1221197,Na4Eu(GeSe3)2,0.2830999999999997
mp-1221181,Na4Eu(SiSe3)2,0.8112000000000004
mp-1221196,Na4Eu(SiTe3)2,0.4510000000000001
mp-24958,Na4Fe2(PO4)3,0.1445000000000003
mp-779240,Na4Fe2C4SO16,0.9841
mp-19396,Na4Fe2O5,1.9196
mp-1203835,Na4Fe3P4O15,3.3551
mp-1221201,Na4FeNi(PO4)3,2.0956
mp-19022,Na4FeO4,0.3336999999999999
mp-764836,Na4FeO5,0.5165000000000001
mp-28773,Na4Ga2S5,2.4813
mp-1203580,Na4Ga3Ge3B(HO3)4,3.5563
mp-534870,Na4Ga3Si3B(HO3)4,4.2475
mp-23659,Na4Ga3Si3BrO12,4.0513
mp-23656,Na4Ga3Si3ClO12,4.1073
mp-40226,Na4Ga3Si3IO12,3.607
mp-1195858,Na4Ga4Si19,0.4172000000000001
mp-1221169,Na4Ge2PbS6,2.1413
mp-28355,Na4Ge2Se5,1.6662
mp-28107,Na4Ge2Te5,0.985
mp-1094119,Na4Ge5O12,1.4045999999999998
mp-721293,Na4GeH28(Se2O7)2,2.0443
mp-2970,Na4GeO4,2.8136
mp-28292,Na4GeSe4,1.9803
mp-720279,Na4H20RuS4(NO9)2,3.3169
mp-758157,Na4H2RuN6O13,2.1724
mp-643001,Na4H6Ru,2.0361
mp-1180393,Na4Hf(S2O9)2,0.4536
mp-14526,Na4Hf2(GeO4)3,3.6565
mp-1211061,Na4HfC8O19,0.03179999999999994
mp-28591,Na4HgP2,0.036499999999999984
mp-22937,Na4I2O,2.2131000000000003
mp-28698,Na4IrO4,0.4291
mp-1223438,Na4La31(CoI12)5,0.012599999999999945
mp-1221200,Na4Li4MnFe3P4(O4F)4,3.4936000000000003
mp-558455,Na4Li5(BO3)3,3.8255
mp-1221439,Na4Li5(WO3)10,1.1501
mp-1221192,Na4LiNb5O15,2.8442000000000003
mp-1194756,Na4LuC3O9F,4.5280000000000005
mp-1103730,Na4Mg(GeSe3)2,2.0392
mp-1103351,Na4Mg(SiSe3)2,2.8256
mp-1020162,Na4Mg3P4O15,4.7301
mp-555524,Na4MgC6(SN)6,4.1635
mp-1221187,Na4MgFe(PO4)3,2.2297
mp-754369,Na4MgO3,1.4967
mp-1221556,Na4MgV10(H11O13)4,1.0699999999999998
mp-777623,Na4Mn2C4SO16,0.2327
mp-18869,Na4Mn2O5,0.6534
mp-583381,Na4Mn3P4O15,3.2957999999999994
mp-765514,Na4Mn5O12,0.6649
mp-694964,Na4MnAl3Si3O16,1.7946
mp-775612,Na4MnO3,0.5962000000000001
mp-853250,Na4MnO4,0.6456999999999999
mp-18772,Na4Mo(NO)2,2.2033
mp-505733,Na4MoO5,2.9246
mp-565395,Na4MoS3O14,2.7772
mp-554356,Na4Nb9(P2O13)3,2.3043
mp-1201128,Na4Ni(PO4)6,0.1736
mp-780118,Na4Ni2O5,0.7638
mp-1221170,Na4Ni3(SbO5)2,2.0762
mp-578642,Na4Ni3P4O15,3.6834
mp-566578,Na4Ni5(P3O11)2,3.664400000000001
mp-19470,Na4Ni7(PO4)6,3.3517
mp-777952,Na4Ni7O16,1.0172
mp-1237121,Na4NiH38(W3O20)2,3.8219
mp-764041,Na4NiO4,0.7785
mp-1194870,Na4NiP2O7F2,4.2522
mp-754019,Na4NpO5,0.6496000000000004
mp-721144,Na4P2H20O17,3.0882
mp-696155,Na4P2H4CO9,2.1219
mp-27579,Na4P2O7,4.416
mp-774455,Na4P3H3O11,5.0015
mp-740750,Na4P4(H2O5)3,4.8057
mp-707200,Na4P4H2O13,5.1224
mp-1221184,Na4P6PbO18,4.9515
mp-676527,Na4PH5Se3O16,3.2615000000000003
mp-20088,Na4PbO4,1.2998000000000005
mp-760492,Na4PtO4,0.81
mp-641281,Na4Pu(MoO4)4,0.15979999999999994
mp-1200574,Na4PuH7O9,0.9535
mp-10419,Na4ReN3,2.4327
mp-1223444,Na4RhW5O26,0.10930000000000006
mp-1210448,Na4RuN6O13,0.05089999999999999
mp-37430,Na4S2O5,2.2212
mp-768959,Na4Sb2C4SO16,2.0394
mp-561458,Na4Sc2(PO4)3,0.3633999999999995
mp-555825,Na4Sc2Si4O13,4.6001
mp-1221157,Na4Sc3In(SiO3)8,4.5709
mp-1221158,Na4ScIn3(SiO3)8,3.883000000000001
mp-29871,Na4SeO5,1.3349000000000002
mp-1221137,Na4SeS,2.1787
mp-1221146,Na4Si2PbSe6,2.1983999999999995
mp-569337,Na4Si2Te5,1.8779000000000003
mp-554853,Na4Si3(SnO6)2,3.0661000000000005
mp-1199706,Na4Si4H18O19,4.8578
mp-1221161,Na4Si5Sn2O17,0.363
mp-7500,Na4SiO4,3.2221
mp-30931,Na4SiSe4,2.1322
mp-1221151,Na4Sn(GeS3)2,1.8715
mp-768326,Na4Sn2C4SO16,1.1476
mp-1210394,Na4Sn2Ge5HO16,2.1367000000000003
mp-1201696,Na4Sn2Ge5O17,0.03350000000000008
mp-707327,Na4Sn2H26Se6O13,1.7333
mp-27310,Na4Sn3F10,3.5349
mp-530571,Na4Sn3O8,2.3778000000000006
mp-29626,Na4Sn3S8,1.6505999999999998
mp-772039,Na4Sn4H10O11,2.6825
mp-779703,Na4Sn5O12,1.4095999999999995
mp-762089,Na4SnH32(SeO4)4,2.1349
mp-28261,Na4SnO3,1.8886
mp-9655,Na4SnO4,2.0838
mp-29628,Na4SnS4,2.0692
mp-28768,Na4SnSe4,1.4604
mp-28108,Na4SnTe4,0.9417
mp-1210405,Na4Sr(Ge2O5)3,2.6951
mp-559773,Na4Sr(SiO3)3,4.0944
mp-1221154,Na4Sr2SiAs4,0.5835999999999997
mp-1221153,Na4Sr2SiP4,0.9486000000000004
mp-1221156,Na4Sr2TiAs4,1.2117
mp-1221155,Na4Sr2TiP4,1.3211
mp-1221144,Na4SrCaSi2,0.13819999999999988
mp-1201366,Na4SrSi8O23,0.1118
mp-1210252,Na4SrU3O12,2.0704
mp-1221172,Na4TaAl3(PO4)6,3.5630000000000006
mp-601342,Na4TeH10(SeO8)2,0.01430000000000009
mp-744242,Na4TeMo6H40(NO20)2,0.008399999999999963
mp-15391,Na4TeO5,2.1185
mp-1221139,Na4TeSe,1.9095
mp-565609,Na4Th(MoO4)4,3.9494
mp-1200418,Na4Th(WO4)4,4.727499999999999
mp-777965,Na4Ti11O24,2.2516
mp-754638,Na4Ti3O8,2.3427999999999995
mp-1202866,Na4Ti4Si3O22,1.9170000000000005
mp-767931,Na4Ti5Mn4O18,0.8315999999999999
mp-555678,Na4Ti5O12,2.4965
mp-760863,Na4Ti7O16,2.3982
mp-559519,Na4TiAs2O9,3.0658
mp-14726,Na4TiO4,3.3246
mp-680756,Na4TiP2O9,2.8289
mp-505798,Na4TiSe4,1.6704
mp-567160,Na4U(MoO4)4,0.006299999999999972
mp-1223772,Na4U3Te5O21,1.9654000000000005
mp-6046,Na4UC3O11,2.1523000000000003
mp-697861,Na4UCr3O14,2.0333
mp-5327,Na4UO5,2.1446
mp-1224720,Na4V10Co(H11O13)4,0.1375
mp-850995,Na4V2C4SO16,1.5699
mp-775962,Na4V2O5,0.3826000000000001
mp-648893,Na4V2O7,3.3849
mp-765721,Na4V3O8,1.7942999999999998
mp-605559,Na4VHO5,3.9674
mp-849942,Na4VO4,0.9879000000000002
mp-705037,Na4VP2O9,1.7472
mp-699658,Na4VS3O13,2.6285
mp-19125,Na4W(NO)2,1.9524
mp-1191377,Na4W4O15,0.39799999999999996
mp-1238551,Na4W8XeO6,0.055600000000000094
mp-782678,Na4WO4,3.0486000000000004
mp-19334,Na4WO5,3.8015
mp-1198484,Na4XeO12,0.1626
mp-1203687,Na4XeO14,0.7080000000000001
mp-1024070,Na4Zn3S5,2.4504
mp-1024048,Na4Zn3Se5,1.8901
mp-1197223,Na4ZnP4H16C2(NO8)2,4.5953
mp-707732,Na4ZnP6(HO2)12,4.552
mp-1094105,Na4ZnSe3,1.6877
mp-565683,Na4Zr(MoO4)4,3.6338
mp-1198341,Na4Zr(SiO3)6,0.19400000000000006
mp-557109,Na4Zr2(GeO4)3,3.725
mp-6150,Na4Zr2(SiO4)3,4.321199999999998
mp-1210330,Na4Zr2Ge5HO16,2.4779
mp-560843,Na4Zr2Ti(CO4)4,3.1442000000000005
mp-1210325,Na4Zr2TiMnSi4(O8F)2,2.4369
mp-1197594,Na4ZrC8O19,0.007200000000000095
mp-1201711,Na5(AsO9)2,0.3743
mp-505045,Na5(InTe3)2,0.8645
mp-764298,Na5(NiO2)9,0.1995
mp-1210474,Na5(Sn5Hg)2,0.02129999999999921
mp-505560,Na5(W7O22)2,0.1299999999999999
mp-767812,Na5(WO3)7,0.16290000000000004
mp-1210443,Na5(ZnSn5)2,0.12040000000000005
mp-1194446,Na5AgGe2S7,1.7919999999999998
mp-1210225,Na5AgGe2Se7,1.1587000000000005
mp-1197684,Na5Al(HO)8,3.2343
mp-4752,Na5Al3F14,6.5485000000000015
mp-24822,Na5Al3H14,2.5843000000000003
mp-13998,Na5AlO4,2.4191000000000003
mp-555488,Na5AlP2(O4F)2,4.6654
mp-17816,Na5AsO5,1.4127000000000005
mp-29198,Na5AuSe12,1.0246000000000002
mp-1197581,Na5B(SO4)4,5.1366
mp-557836,Na5B2P3O13,5.0787
mp-560624,Na5Bi(P2O7)2,4.2843
mp-776697,Na5Bi2As(CO4)4,0.9745999999999996
mp-560658,Na5Bi2As5O18,3.1755000000000004
mp-778147,Na5Bi2P(CO4)4,0.5547999999999997
mp-760400,Na5BiO5,0.8502000000000003
mp-1221141,Na5Br4Cl,4.2025000000000015
mp-1221147,Na5BrCl4,4.2728
mp-559777,Na5Ca2Al(PO4)4,4.6496
mp-1221180,Na5Ca2Fe3(PO4)6,2.2445000000000004
mp-556228,Na5Ca4P4O16F,4.7165
mp-695571,Na5Ca6Nd5Zr16O48,3.6137000000000006
mp-1211060,Na5Ca7Zr2Ti2Si8(O5F)6,0.02069999999999972
mp-1221189,Na5Ca7Zr2TiMnSi8(O8F)4,0.15469999999999984
mp-744927,Na5CaAl5Fe(SiO3)12,3.2345
mp-641500,Na5Co2O5,1.3178
mp-776861,Na5CoHO4,1.1762
mp-776641,Na5CoO4,1.6505000000000003
mp-19027,Na5CoSO2,1.1386999999999998
mp-769542,Na5Cr2As(CO4)4,0.2356999999999998
mp-778332,Na5Cr2P(CO4)4,0.12509999999999974
mp-565702,Na5Cr3F14,2.9191000000000003
mp-762885,Na5CrHO4,0.06890000000000017
mp-780916,Na5CrO4,0.6587000000000001
mp-566722,Na5CrP2(O4F)2,3.1625
mp-757878,Na5Cu(HO2)2,1.4867
mp-1193249,Na5Cu3(PO4)4,0.023499999999999854
mp-1220737,Na5CuCO5,1.4091000000000002
mp-758987,Na5CuHO4,0.2378
mp-1200812,Na5CuS4(NO6)2,1.2626
mp-11147,Na5CuSO2,1.5228
mp-1192543,Na5Dy4Si4O16F,4.7738
mp-566277,Na5Er(MoO4)4,3.8857
mp-1192584,Na5Er4Si4O16F,4.8088
mp-1195392,Na5ErH6WO10,3.9334
mp-1220860,Na5EuTaAs4,0.2591999999999999
mp-764460,Na5Fe11O16,0.8628
mp-1176648,Na5Fe2P2(CO7)2,1.6969999999999998
mp-1220973,Na5Fe3Ag2(As2O7)4,1.8012
mp-566089,Na5Fe3F14,3.2652
mp-762875,Na5FeHO4,1.2346
mp-764143,Na5FeO4,1.9914
mp-1198461,Na5FeP2(O4F)2,2.4251
mp-556086,Na5FeS4,0.7966
mp-558924,Na5Ga3F14,5.2178
mp-1204283,Na5Ga7H12S13O6,2.9908
mp-7656,Na5GaO4,2.2018
mp-645183,Na5Gd(MoO4)4,3.3896
mp-1192390,Na5Gd4Si4O16F,3.3825000000000003
mp-780173,Na5GdO4,2.5823
mp-16861,Na5GeAs3,0.4837
mp-4172,Na5GeP3,1.0631000000000004
mp-723093,Na5H29(IO12)2,1.8001
mp-730460,Na5H3(CO3)4,4.9055
mp-1204007,Na5H4BrO4,3.3178
mp-1220981,Na5H7(Se2O9)2,3.3126
mp-1189018,Na5Hf2F13,6.657
mp-541236,Na5HfAs3,0.9022
mp-1192403,Na5Ho4Si4O16F,4.780399999999998
mp-1210180,Na5IO6,1.8752
mp-14493,Na5InO4,1.7202000000000002
mp-29376,Na5InS4,2.0197000000000003
mp-28597,Na5InTe4,1.2161
mp-19479,Na5La(MoO4)4,4.0741000000000005
mp-558234,Na5La(WO4)4,4.7881
mp-780258,Na5LaO4,2.0012
mp-1195001,Na5Li(Mo3O10)3,2.9749
mp-559452,Na5Li(PO4)2,4.3383
mp-554395,Na5Li3(TiS4)2,2.2479
mp-774609,Na5Li3Ti5O14,3.1152999999999995
mp-1220829,Na5Li3V8O24,3.1401
mp-775424,Na5Li4Ti5O14,0.0484
mp-770326,Na5LiCo2P2(CO7)2,2.6689
mp-1176585,Na5LiFe2P2(CO7)2,3.4033
mp-767564,Na5LiFe6(SiO3)12,2.76
mp-578869,Na5LiMn2O8,1.7783999999999998
mp-770026,Na5LiMn2P2(CO7)2,3.3952
mp-29930,Na5LiN2,0.18620000000000006
mp-770324,Na5LiNi2P2(CO7)2,3.9112
mp-776848,Na5LiV6O18,3.1951
mp-19464,Na5Lu(MoO4)4,3.8302
mp-1133325,Na5Lu(SiO3)4,3.8096
mp-560822,Na5Lu(WO4)4,4.658
mp-1195683,Na5LuH4(C2O7)2,4.7925
mp-677416,Na5Mg5In3(SO4)12,3.695
mp-1176334,Na5Mn2As(CO4)4,0.011700000000000044
mp-769536,Na5Mn2P2(CO7)2,0.4687999999999999
mp-558166,Na5Mn3F14,1.3818
mp-1194736,Na5Mn3S4(O4F)4,1.085
mp-764328,Na5Mn7O16,0.5352000000000001
mp-763811,Na5MnHO4,0.5945999999999998
mp-32013,Na5MnO4,1.3859
mp-1176326,Na5MnO5,0.6316000000000002
mp-565866,Na5MoNO4,2.8906
mp-5477,Na5NbO5,2.6402
mp-19461,Na5Nd(WO4)4,4.7864
mp-1173727,Na5Nd11Ti10Mn6O48,0.7189000000000005
mp-1192544,Na5Nd4Ge4O16F,3.7154
mp-1192521,Na5Nd4Si4O16F,4.5310000000000015
mp-1193130,Na5Nd4Si4O17,0.3806000000000001
mp-1220779,Na5NiCO5,1.5992
mp-763808,Na5NiHO4,2.2542
mp-18912,Na5NiSO2,1.4205
mp-1095270,Na5NpO6,1.3194
mp-703521,Na5P3(H3O4)4,4.7269999999999985
mp-722904,Na5P3H2O11,0.3476
mp-738718,Na5P3H48C4N(O9F)3,4.4658
mp-3928,Na5P3O10,4.5287
mp-706715,Na5P5(H9O7)2,4.9948
mp-1192433,Na5Pr4Ge4O16F,3.683
mp-1192370,Na5Pr4Si4O16F,4.4625
mp-8253,Na5ReO6,2.2528
mp-759876,Na5SbO5,1.6411999999999998
mp-1201367,Na5Sc(C2O7)2,0.4478
mp-24144,Na5ScH4(C2O7)2,4.837
mp-18139,Na5SiAs3,0.7629999999999999
mp-5929,Na5SiP3,1.3925
mp-1192338,Na5Sm4Si4O16F,4.6293
mp-776261,Na5Sn2P(CO4)4,0.2669999999999999
mp-5248,Na5SnAs3,0.3937
mp-18317,Na5SnP3,0.9406
mp-29739,Na5SnSb3,0.23270000000000035
mp-1220796,Na5SrNbAs4,1.1794
mp-1220783,Na5SrNbP4,1.3207
mp-1220774,Na5SrTaP4,1.3882
mp-8957,Na5TaO5,2.5380000000000003
mp-19469,Na5Tb(MoO4)4,3.938
mp-1192492,Na5Tb4Si4O16F,4.7279
mp-723082,Na5Te2H36AuO28,2.4632
mp-18271,Na5Ti2Si2PO13,2.5262
mp-1120736,Na5Ti3F14,0.22989999999999974
mp-677499,Na5Ti7Al(PO4)12,2.4867
mp-559314,Na5TiP2O9F,3.1242
mp-7652,Na5TlO4,1.1596000000000002
mp-31483,Na5TlSn3,0.05259999999999998
mp-1192572,Na5Tm4Si4O16F,4.8217
mp-779752,Na5V2P(CO4)4,0.008499999999999952
mp-1196811,Na5V3O12,0.4346
mp-764294,Na5V4(PO4)6,0.7703999999999998
mp-765656,Na5V7O14,0.22079999999999966
mp-1101696,Na5VO4,0.29000000000000004
mp-25160,Na5VO5,2.239
mp-566240,Na5WNO4,3.0455
mp-560919,Na5Y(CO3)4,4.2043
mp-18944,Na5Y(WO4)4,4.7451
mp-1221256,Na5Y2(SiO4)6,0.8379000000000001
mp-557696,Na5Y4Si4O16F,4.7696000000000005
mp-555272,Na5Zr2F13,6.1043
mp-1202884,Na5Zr2MnF15,3.7934
mp-1221060,Na5Zr2Si12O37,0.0192
mp-1201520,Na5Zr2Si6ClO20,0.04829999999999995
mp-686583,Na5Zr4Si3(PO8)3,4.1737
mp-853148,Na6(NiO2)7,0.3336000000000001
mp-1220862,Na6Al3Fe3(TeO6)4,2.3484000000000003
mp-705484,Na6Al4Fe(Si4O13)2,2.9989999999999997
mp-1220895,Na6B18Se17,2.1086
mp-1197672,Na6BSe5O21,0.010199999999999987
mp-28559,Na6Be8O11,3.6365
mp-755546,Na6BeO4,1.9845
mp-779289,Na6Bi2B4SO16,0.1836
mp-769413,Na6Bi2C4SO16,0.06289999999999996
mp-767841,Na6Ca3MnC6(O9F)2,4.3288
mp-1220825,Na6Ca3U2O12,1.8524
mp-695056,Na6CaZr(SiO3)6,4.314500000000002
mp-1220788,Na6Cd(SnS3)4,1.2873
mp-1220798,Na6Cd7S10,1.0371
mp-28022,Na6CdCl8,4.0226
mp-851008,Na6Co2B4SO16,0.14069999999999985
mp-780164,Na6Co2C4SO16,2.7228000000000003
mp-764061,Na6CoO4,0.7895999999999996
mp-5481,Na6CoS4,0.4270000000000001
mp-560368,Na6Cu9(PO4)8,0.17789999999999973
mp-772422,Na6Fe2B4PO16,0.02799999999999997
mp-1220899,Na6Fe2P4HO17,0.29679999999999995
mp-1176325,Na6Fe3(PO4)4,2.9917
mp-780755,Na6FeO4,0.6261000000000001
mp-1173745,Na6Ga5Si7H15O32,1.4106999999999998
mp-27752,Na6Ge2S7,2.4264
mp-18100,Na6Ge2Se7,1.5871000000000002
mp-720802,Na6HfH8S5O24,4.6625
mp-1204628,Na6HfHS5O21,0.005600000000000049
mp-1202345,Na6Li2Y3Zr3P6(CO17)2,0.06389999999999985
mp-1101725,Na6Li3Fe6(PO4)8,1.235
mp-558427,Na6Mg(SO4)4,5.2539
mp-6892,Na6Mg2C4SO16,4.5304
mp-1198429,Na6Mg3B9P6H3O38,0.4025000000000001
mp-677551,Na6MgAl4Si13O36,5.029300000000001
mp-1210184,Na6MgCl8,5.1122999999999985
mp-753816,Na6MgO4,2.0991
mp-770500,Na6Mn2B4SO16,1.4534000000000002
mp-770525,Na6Mn2C4SO16,3.8957000000000006
mp-778858,Na6Mn3(PO4)4,2.1610000000000005
mp-775633,Na6Mn7O10,0.11970000000000035
mp-27125,Na6MnCl8,2.5589000000000004
mp-1094109,Na6MnNi3(SbO6)2,1.4575999999999991
mp-776856,Na6MnO4,0.7683
mp-5055,Na6MnS4,1.4025
mp-14780,Na6MnSe4,1.1356000000000002
mp-14782,Na6MnTe4,1.3409
mp-648992,Na6Mo10O33,3.0505
mp-642881,Na6Mo11O36,2.6018
mp-1029542,Na6MoN4,1.3685999999999998
mp-553959,Na6Nb8(PO7)5,0.0517000000000003
mp-777027,Na6Ni2C4SO16,3.5319000000000003
mp-1205268,Na6Ni3B9P6H3O38,0.5492999999999999
mp-779898,Na6NiO4,1.2905999999999995
mp-722834,Na6P2H2O9,4.3754
mp-560831,Na6P4Pb3S16,2.3264
mp-9007,Na6P4W,1.2658
mp-27623,Na6PbO4,1.3501000000000003
mp-557401,Na6PbO5,1.0040000000000002
mp-23657,Na6S2ClO8F,4.7796
mp-16180,Na6S2O9,2.9766
mp-554443,Na6Se2O9,1.1291999999999998
mp-1020179,Na6Si2O7,3.313
mp-16961,Na6Si2Se7,2.1551
mp-554033,Na6Si8O19,4.5317
mp-1220847,Na6Sm4Ge4Se17,1.3215
mp-780239,Na6Sn2B4SO16,3.4323
mp-769261,Na6Sn2C4SO16,2.4077
mp-773498,Na6Sn2O7,1.9929
mp-4907,Na6Sn2S7,2.0847
mp-16889,Na6Sn2Se7,1.4178999999999995
mp-1202192,Na6Sn4Ge5O22,0.6841999999999999
mp-1197343,Na6Te(PO5)6,0.009199999999999986
mp-1204538,Na6Te(W3O23)2,0.16369999999999996
mp-1101723,Na6Te2H28RuO30,0.6704
mp-1200032,Na6TeMo6(H22O23)2,3.3097000000000003
mp-707787,Na6TeP6(H2O5)6,0.9691999999999998
mp-1211028,Na6TeP6(H3O5)6,4.0558
mp-778364,Na6Ti2O7,3.4136
mp-40374,Na6TiMn(SiO3)6,2.8038
mp-542387,Na6TlSb4,0.007400000000000073
mp-566488,Na6U(Mo2O9)2,2.2362
mp-867972,Na6U(SO5)4,0.135
mp-704703,Na6U2Mo4O21,2.0982
mp-700033,Na6U5V2O23,1.8105
mp-1201393,Na6UH24C5O27,0.2594000000000001
mp-853191,Na6V2C4SO16,2.7044
mp-780893,Na6V2O7,0.9095999999999996
mp-766152,Na6W10O33,3.3689
mp-1196529,Na6W6Se2O25,2.7174
mp-1029656,Na6WN4,1.2474000000000005
mp-758925,Na6Zn3As4H6O19,2.9933
mp-1196035,Na6Zn3As4O19,0.6376
mp-1204092,Na6Zn3B9P6H3O38,0.4448000000000001
mp-24507,Na6Zn3P4H6O19,3.978
mp-1210645,Na6Zn3P4O19,0.4239
mp-695935,Na6ZnH4(S2O9)2,5.0922
mp-7664,Na6ZnO4,1.5336
mp-8389,Na6ZnS4,2.1614000000000004
mp-1024047,Na6ZnSe4,1.6586
mp-1220870,Na6Zr2Si4O17,0.052799999999999965
mp-763805,Na7(WO3)9,1.0205000000000002
mp-690987,Na7Al10Si14(AgO16)3,2.3088
mp-686232,Na7Al11Si13(AgO12)4,0.5483
mp-695601,Na7Al12Si12H6ClO48,3.6089
mp-28267,Na7Al2Sb5,0.29590000000000005
mp-556168,Na7Al3O8,3.1165000000000003
mp-1020724,Na7Al4P9O32,4.7512
mp-707443,Na7AlH2C4(O3F)4,4.7979
mp-686729,Na7AlSn11(PO4)18,3.319
mp-1173826,Na7As11O31,2.2049000000000003
mp-28856,Na7Au5S6,2.2102
mp-686311,Na7Bi3P12(Pb5O24)2,3.4189000000000003
mp-695426,Na7Ca3Ta7Ti3O30,2.3227
mp-776669,Na7Co3O8,1.3666999999999998
mp-850974,Na7Cr2O6,0.20100000000000007
mp-1173793,Na7Cr3Co(PO4)6,1.7877999999999998
mp-1101693,Na7Cr4(PO4)6,0.44010000000000016
mp-1221035,Na7Cr4P9O32,2.7905
mp-675539,Na7Cu3O8,0.9871
mp-1203302,Na7Cu4(AsO4)5,0.4655
mp-757403,Na7Cu7O13,0.4447999999999999
mp-1220949,Na7Fe4P9O32,2.6487
mp-1221052,Na7Fe7P6(O8F)3,2.7944
mp-1193970,Na7I2O5,0.117
mp-541689,Na7In3Se8,1.1676
mp-6702,Na7In4P9O32,3.7157
mp-1173844,Na7La7Th2Ti18O54,1.931
mp-775722,Na7Li3V10O30,3.1340000000000003
mp-765608,Na7Mn11O24,0.5909
mp-766607,Na7Mn16O32,0.4796
mp-1221002,Na7Mn4Fe8(PO4)12,0.002200000000000202
mp-1205264,Na7Mn5P3H6O15F13,1.2885
mp-777584,Na7NbO6,2.7722
mp-760311,Na7SbO6,1.7517
mp-1221178,Na7Sn12,0.17720000000000002
mp-554294,Na7SnS3(O4F)3,4.9906000000000015
mp-1197021,Na7Sr2Fe7F32,3.1485000000000003
mp-1200090,Na7TiNb2Si4P2O29F,0.2976
mp-1196696,Na7UH4S4ClO20,1.872
mp-1222594,Na7V(W3O19)2,0.2917000000000001
mp-849512,Na7V2O6,0.5724999999999998
mp-559103,Na7Y2P7O24,4.8343
mp-1210693,Na7YbC4(O3F)4,0.0062000000000000935
mp-677042,Na7Zr4Si5PO24,4.4485
mp-33872,Na7Zr6F31,5.2616000000000005
mp-765671,Na8(NiO2)9,0.3853
mp-677572,Na8Al11Si13(AgO16)3,2.167
mp-1220864,Na8Al3Ga3Si6(ClO12)2,4.3992
mp-1220843,Na8Al6Si6BrClO24,4.7061
mp-39823,Na8Al6Si6CO27,3.2507
mp-1220856,Na8Al6Si6IClO24,4.2749
mp-1173749,Na8Al6Si6O25,1.8495
mp-41734,Na8Al6Si6SO28,4.1847
mp-40201,Na8Be3Si9(ClO12)2,3.9839
mp-43188,Na8BeAl4Si7(BrO12)2,3.8868
mp-42583,Na8BeAl4Si7(ClO12)2,4.1385
mp-773826,Na8Bi5O14,0.19720000000000004
mp-778231,Na8Co2O7,1.4124
mp-774400,Na8Co5O14,0.4219999999999997
mp-764233,Na8CoO6,0.9511
mp-779159,Na8Cu2O7,0.016699999999999937
mp-555787,Na8Fe2O7,2.1091
mp-764072,Na8Fe5O14,0.06459999999999999
mp-764167,Na8Fe7(PO4)8,0.005700000000000038
mp-764501,Na8FeO6,0.017100000000000004
mp-27618,Na8Ga2O7,2.2588000000000004
mp-685217,Na8Ga42O67,0.7827999999999999
mp-780360,Na8Gd2O7,1.8545000000000005
mp-1204006,Na8H10S8O17,3.806200000000001
mp-566495,Na8Hf(MoO4)6,4.048
mp-771278,Na8Li9(FeO4)4,0.05399999999999994
mp-554071,Na8Nb2Cu4S21,1.1534
mp-1221183,Na8Nb4Si16O53,0.12969999999999998
mp-762344,Na8Nb5O14,0.2504999999999997
mp-560597,Na8Si6SnO18,3.8047
mp-29176,Na8Si7O18,4.4437
mp-761931,Na8SnO6,1.0551
mp-3138,Na8SnSb4,0.2682000000000002
mp-997599,Na8Ta7VO24,1.2602000000000002
mp-1212664,Na8Te4W7O36,1.1989
mp-28017,Na8Ti5O14,3.5098000000000003
mp-9071,Na8TiAs4,1.0363000000000002
mp-761219,Na8TiO6,2.0926
mp-778356,Na8V2O7,0.4421
mp-1221150,Na8Zr3Si12SnO40,1.1224999999999998
mp-1221041,Na8Zr3Si16Sn(H4O13)4,4.4255
mp-1220956,Na8Zr3Ti3Mn2Si8(O17F)2,1.1665
mp-1199831,Na9Al2(H9O7)3,3.6163
mp-1173825,Na9CaFe10(SiO3)20,1.1727
mp-693144,Na9CaTa9TiO30,2.5386999999999995