task_id,composition,band_gap
mp-542480,Na9Co2O7,1.1915
mp-863862,Na9Cr2(H9O7)3,3.3093
mp-779478,Na9Cu2O7,0.06529999999999991
mp-1196505,Na9Fe(MoO4)6,2.9551
mp-764194,Na9Fe3P8O29,2.4658
mp-1199516,Na9H4S4BrO20,4.399
mp-1210811,Na9Hg,0.2319
mp-775682,Na9Li7V16O48,3.056
mp-775304,Na9LiFe10(SiO3)20,2.7449000000000003
mp-764537,Na9Mn15O32,0.24630000000000016
mp-765674,Na9Ni7O16,0.1091000000000002
mp-1201917,Na9Sc(MoO4)6,4.2159
mp-1220845,Na9Sm(GeSe3)4,1.6875
mp-1220844,Na9Sm(SiSe3)4,2.3717
mp-695213,Na9Sr2La9Ti20O60,1.9492000000000005
mp-694961,Na9Sr2Nd9Ti20O60,2.1522
mp-578824,Na9V14O35,0.4828000000000001
mp-720989,Na9Zr8Si4(P4O23)2,1.3511000000000002
mp-720460,Na9Zr8Si4(PO6)8,1.3866999999999994
mp-559150,Na9ZrP4ClO16,3.9694
mp-865081,NaAcTe2,0.6033999999999997
mp-568422,NaAg(CN)2,2.9395
mp-985593,NaAg(CO2)2,2.5394
mp-558460,NaAg(NO2)2,2.2443
mp-1196210,NaAg(SO2)2,0.2271
mp-1095915,NaAg2Pb,0.05440000000000023
mp-1093746,NaAg2Pd,0.05039999999999978
mp-27303,NaAg3O2,0.6596
mp-16992,NaAg3S2,0.9284
mp-1206388,NaAgC2,1.1942000000000002
mp-7386,NaAgF4,1.5463999999999998
mp-605018,NaAgH16C4S4(NO5)2,3.9407
mp-1200038,NaAgI2O3,0.5677999999999999
mp-6983,NaAgO,1.2098
mp-754326,NaAgO2,0.5874999999999999
mp-1096708,NaAgPd2,0.07560000000000011
mp-1180173,NaAgSO5,0.208
mp-1210534,NaAgTe5O14,0.9244
mp-706590,NaAl(H2N)4,0.7307999999999999
mp-565569,NaAl(MoO4)2,3.6881
mp-1189227,NaAl(PS3)2,2.6677000000000004
mp-1180545,NaAl(SO10)2,0.2647999999999999
mp-1020661,NaAl(SiO3)2,4.5444
mp-3405,NaAl11O17,4.4910000000000005
mp-1199124,NaAl2H18S4N4ClO18,5.0711
mp-568785,NaAl3NiCl12,1.2562
mp-1220886,NaAl3P2(HO3)4,5.4554
mp-1198448,NaAl3Si3(HO6)2,4.6832
mp-677233,NaAl3Tl2(SiO4)3,2.9332000000000003
mp-863289,NaAl6Fe3Si6B3H3O30F,0.4913999999999996
mp-24954,NaAl6Fe3Si6B3O30F,2.5556
mp-1220960,NaAl6Sb7(TeCl3)8,1.4598
mp-560921,NaAlAs2O7,2.7304000000000004
mp-14395,NaAlAsO4F,3.4604
mp-34763,NaAlB14,1.5847999999999995
mp-24646,NaAlBP2H3O10,5.7883
mp-1210155,NaAlBr4,4.149
mp-555048,NaAlCdF6,4.6080000000000005
mp-23363,NaAlCl4,5.1557
mp-1210245,NaAlCr2(HO4)2,1.2795
mp-1193153,NaAlCr2O10,0.07120000000000004
mp-1102077,NaAlF4,6.6735
mp-14511,NaAlGeO4,3.7388
mp-1173817,NaAlH22C10(NO6)2,0.9824
mp-24046,NaAlH24(SO10)2,5.3109
mp-644506,NaAlH2CO5,4.9329
mp-23704,NaAlH4,4.6648
mp-1189460,NaAlH8(NF3)2,6.5070999999999986
mp-29395,NaAlI4,3.4482
mp-9212,NaAlO2,3.7968
mp-16777,NaAlP2O7,5.2801
mp-8678,NaAlPO4F,5.429500000000001
mp-17060,NaAlSe2,2.2333
mp-676991,NaAlSi2H2O7,4.7533
mp-721988,NaAlSi3O8,4.8641000000000005
mp-560334,NaAlSiO4,4.5993
mp-10163,NaAlTe2,1.2847
mp-1106381,NaAs,0.7414000000000001
mp-1220871,NaAs3(PbO3)4,3.4363
mp-730154,NaAs3H2O9,2.6272
mp-559786,NaAs4BrO6,3.0497
mp-1210094,NaAs4IO6,2.4392000000000005
mp-1079088,NaAsF6,5.114
mp-696175,NaAsH4O5,3.815
mp-3468,NaAsO2,3.7311
mp-1180192,NaAsO6,0.13100000000000006
mp-561190,NaAu(SO4)2,1.7422
mp-570193,NaAuCl4,1.6074
mp-7388,NaAuF4,2.1333
mp-997089,NaAuO2,1.1413
mp-1204074,NaAuS,2.0969
mp-29139,NaAuSe2,0.9066
mp-571433,NaB(CN)4,6.4949
mp-559618,NaB(CO2)4,3.5338
mp-1201964,NaB(H4N)2,5.1307
mp-23784,NaB(H4O)2,5.8288
mp-696849,NaB(H4O3)2,4.4654
mp-707419,NaB(HO)4,4.873
mp-1020655,NaB(S2O7)2,5.5222
mp-1020658,NaB(SO4)2,6.0208
mp-1210485,NaB10H3Pb4O21,0.08069999999999977
mp-1221108,NaB10Pb4Cl2O19,1.2636000000000005
mp-1197248,NaB24S6(Br2O)12,0.047300000000000016
mp-706629,NaB2H5O6,5.2761
mp-706489,NaB2HO4,5.126
mp-720642,NaB3H4O7,5.3518
mp-556226,NaB3O5,5.2407
mp-1202375,NaB3SeO7,4.4972
mp-721294,NaB5(H2O5)2,5.5723
mp-540721,NaB5H10O13,5.6657
mp-1195228,NaB5H8O13,0.4918999999999998
mp-1199541,NaB5PbO9,4.585299999999998
mp-1203101,NaB6H8S3O7,2.148
mp-1196084,NaB6S4(Br3O4)2,1.7323
mp-1205269,NaB6S4(I3O4)2,1.1777
mp-1199996,NaB7(H9O10)2,4.2023
mp-640950,NaB9Se8,1.9422
mp-1238775,NaBC,0.7943999999999996
mp-3521,NaBF4,7.8412000000000015
mp-1195859,NaBH34(C3N)4,4.178999999999999
mp-38725,NaBH4,6.3249
mp-721727,NaBH8O7,3.8757
mp-3889,NaBO2,4.1074
mp-1194338,NaBOF2,6.2946
mp-15011,NaBS2,2.5623
mp-1020624,NaBe(BO2)3,5.3609
mp-556865,NaBe2BO3F2,5.9419
mp-1210101,NaBe2Tl3F8,4.488
mp-8075,NaBe4SbO7,3.3858999999999995
mp-9573,NaBeAs,1.2793
mp-23729,NaBeH3,0.9154
mp-753443,NaBeO2,2.8988
mp-6392,NaBePO4,5.5745000000000005
mp-9574,NaBeSb,0.8866
mp-556001,NaBeSi3HO8,4.9781
mp-1195937,NaBeSi3O8,0.17759999999999998
mp-1210092,NaBi(MoO4)2,2.7448999999999995
mp-23621,NaBi(PO3)4,4.6279
mp-1220818,NaBi(WO4)2,3.2933
mp-557498,NaBi2AuO5,0.8399000000000001
mp-556287,NaBi2Sb3O11,2.4062
mp-1220821,NaBi3(BrO2)2,2.2640000000000002
mp-1220820,NaBi3(ClO2)2,2.3551999999999995
mp-1220823,NaBi3(IO2)2,1.8698999999999997
mp-756721,NaBi5O8,2.2792
mp-770332,NaBiCSO7,3.7245
mp-27420,NaBiF6,2.7096
mp-22984,NaBiO2,1.1350000000000002
mp-23054,NaBiO3,1.0879
mp-1221102,NaBiTe2,1.1388999999999996
mp-1180168,NaBrO2,2.0484
mp-23339,NaBrO3,4.4649
mp-1180486,NaC2(NO)4,0.28280000000000016
mp-570248,NaC2N3,3.5755
mp-1193256,NaC2NO3,4.4317
mp-1195079,NaC2S2N(O2F3)2,6.1671999999999985
mp-574822,NaC4N3,3.5561
mp-30053,NaCN,5.0374
mp-546500,NaCNO,4.4908
mp-4534,NaCO2,3.3888
mp-1120755,NaCO3,0.6513
mp-695305,NaCS(OF)3,5.8787
mp-1210318,NaCSCl3O4,0.5223
mp-6633,NaCSN,4.1761
mp-1204065,NaCa(PO2)3,3.0085
mp-1020683,NaCa(PO3)3,5.4404
mp-1221168,NaCa10(PO4)7,5.0206
mp-1193367,NaCa2(SiO3)3,0.25780000000000003
mp-1093799,NaCa2Al,0.1288999999999998
mp-1180232,NaCa2Al2As2O11F4,0.2919999999999999
mp-707176,NaCa2Al2P2H5O11F4,5.4846
mp-698491,NaCa2Al4H8C4ClO20,5.1711
mp-722342,NaCa2B9(H2O5)4,5.1407
mp-720948,NaCa2LuSi2O7F2,1.2063000000000006
mp-677573,NaCa2Mg2(AsO4)3,2.9898
mp-706239,NaCa2Mg2V3O12,3.3296
mp-1221134,NaCa2Mg5AlSi7(O11F)2,4.659
mp-1221182,NaCa2Nb8(BiO4)9,2.6625000000000005
mp-534778,NaCa2ScZn2(SiO3)6,4.2934
mp-23792,NaCa2Si3HO9,4.8456
mp-1210279,NaCa2Si4O10F,4.959999999999999
mp-684821,NaCa2SiO4F,2.5833
mp-1221096,NaCa2Ta3O10,2.1844
mp-647450,NaCa2TiSi2O8F,3.4363
mp-743703,NaCa2V3(CoO6)2,2.1016000000000004
mp-706235,NaCa2V3Zn2O12,3.0254000000000003
mp-1210586,NaCa2ZrSi2O9,0.13380000000000014
mp-743726,NaCa3AlFe3(SiO3)8,3.9528
mp-1210550,NaCa3C2O7F3,0.6514
mp-1221188,NaCa3Fe(SiO3)8,0.12190000000000012
mp-1173734,NaCa3Fe4(SiO3)8,1.3837000000000002
mp-1221119,NaCa3Mg3Fe(SiO3)8,2.9218
mp-1221128,NaCa3MgFe(Si2O7)2,3.0706
mp-6281,NaCa3RuO6,0.4293
mp-1221120,NaCa3ScZn3(SiO3)8,4.2254000000000005
mp-693612,NaCa3SmP3O12F,5.2867
mp-707264,NaCa3UH16C3SO25F,0.4825
mp-554240,NaCa4(BO3)3,4.0868
mp-722188,NaCa4Si8H16O28F,4.8688
mp-694049,NaCa4TaTi4(SiO5)5,2.8068000000000004
mp-720204,NaCa4Ti4Nb(SiO5)5,2.9214
mp-705485,NaCa5ScZn5(SiO3)12,4.3812
mp-1210346,NaCa6Ti(Si2O9)2,0.26780000000000004
mp-705853,NaCa8SmTi10(SiO5)10,2.9163
mp-9467,NaCa9Mg(PO4)7,5.1503
mp-720704,NaCa9ScZn9(SiO3)20,4.0947
mp-705502,NaCa9TaTi9(SiO5)10,2.9149
mp-677027,NaCa9TaTi9O30,2.4407
mp-534850,NaCa9Ti9Nb(SiO5)10,2.8416
mp-677223,NaCaAl3(SiO4)3,3.4731
mp-17944,NaCaAlF6,7.1135
mp-1173750,NaCaAlFe(SiO3)4,3.0099
mp-697278,NaCaAlH2OF6,6.5999
mp-1199631,NaCaAlOF6,1.4668
mp-1210199,NaCaAlPHO5F2,5.4068999999999985
mp-1221104,NaCaAlSi2O7,4.5716
mp-961685,NaCaAs,1.5819
mp-1193109,NaCaAsO4,3.5788
mp-707788,NaCaB5(H5O7)2,4.9825
mp-1210880,NaCaB5(H7O4)3,0.7127
mp-698191,NaCaB5H16O17,2.9061
mp-705528,NaCaB5H8O13,4.8843999999999985
mp-1193627,NaCaBe2B2O6F,5.0966000000000005
mp-560721,NaCaBeSi2O6F,5.2919
mp-694890,NaCaFe2(SiO3)4,1.207
mp-851073,NaCaFe3(PO4)4,2.2436
mp-1221117,NaCaGaSi2O7,4.1161
mp-1078750,NaCaH3,2.1679
mp-1180133,NaCaH6Ir,3.5245
mp-1221090,NaCaMg2F7,6.4682
mp-1173842,NaCaMg3Fe6(PO4)9,2.127
mp-1221089,NaCaMgAl(SiO3)4,5.039200000000001
mp-1221077,NaCaMgCr(SiO3)4,3.1835
mp-1221075,NaCaMgFe(SiO3)4,2.9665000000000004
mp-1204868,NaCaMn2P3(HO6)2,3.716
mp-42255,NaCaNb2O6F,2.7833
mp-1202262,NaCaPH18SO12,4.1968
mp-14401,NaCaPO4,4.914
mp-1100420,NaCaSb,0.8883000000000005
mp-684991,NaCaScZn(SiO3)4,4.5493000000000015
mp-634418,NaCaSiHO4,4.4923
mp-1104298,NaCaSiO4,0.08589999999999988
mp-39712,NaCaTaTiO6,2.4426
mp-1210293,NaCaTiMnSi2O8F,2.4093
mp-19302,NaCaVO4,3.6886
mp-1221079,NaCaYCdF8,5.0607
mp-1210421,NaCaZrFeSi2O8F,3.4313
mp-15250,NaCd(PO3)3,4.7064
mp-1193671,NaCd2(SiO3)3,0.20809999999999995
mp-1197472,NaCd4(GeO3)5,0.5919
mp-13718,NaCd4(PO4)3,2.479
mp-7378,NaCdAs,0.0006999999999997009
mp-4360,NaCdF3,3.513
mp-557366,NaCdH3(CO2)3,4.3047
mp-1180247,NaCdP2NO10,0.06159999999999988
mp-1194852,NaCdP3(H4O5)2,4.9971999999999985
mp-6684,NaCdPO4,2.9166000000000003
mp-1191034,NaCdSbS3,1.5211999999999994
mp-1210295,NaCe(CO3)2,0.13379999999999992
mp-1204327,NaCe(GaS2)4,0.07299999999999995
mp-646612,NaCe(GaSe2)4,0.0812999999999997
mp-1221085,NaCe(MoO4)2,0.025099999999999238
mp-561049,NaCe(PO3)4,0.18009999999999948
mp-569618,NaCe(PSe3)2,0.1418999999999997
mp-1211327,NaCe(SeO5)2,0.2339
mp-684828,NaCeH2S2O9,0.3348999999999993
mp-1196604,NaCeP2H2CO7,0.7087000000000001
mp-767538,NaCePCO7,1.2258
mp-43055,NaCeTiNbO6F,0.03460000000000018
mp-1189265,NaCl3,2.6845
mp-1080771,NaCl7,0.5030000000000001
mp-30965,NaClO2,2.4090000000000003
mp-23330,NaClO3,5.6182
mp-22968,NaClO4,5.4553
mp-609284,NaCo(CO)4,3.7329
mp-1194999,NaCo2As3O10,1.6087999999999998
mp-1173715,NaCo2H3(SO5)2,2.7837
mp-1173735,NaCo2H3(SeO5)2,2.2067
mp-743889,NaCo2HSe2O7,2.7574999999999994
mp-1094138,NaCo2P2O9,0.2414000000000001
mp-763900,NaCo2P3O10,2.3543
mp-1210198,NaCo2Se2O7,0.6100000000000001
mp-541479,NaCo3As3(HO6)2,2.0821
mp-763987,NaCo3O4,0.8266999999999998
mp-541478,NaCo3P3(HO6)2,2.6032
mp-1101692,NaCoBO3,2.5614
mp-601388,NaCoBP2H2O9,3.1031
mp-1211027,NaCoBP2H4O11,0.033499999999999974
mp-773215,NaCoCSO7,0.4798
mp-555201,NaCoF3,2.9522
mp-762637,NaCoH2C3O7,2.6027
mp-1221138,NaCoH3(CO2)3,2.7998000000000003
mp-18921,NaCoO2,0.8321999999999998
mp-1221116,NaCoP2HO7,3.0133
mp-743529,NaCoP3(H4O5)2,3.1353
mp-1101670,NaCoPCO7,0.2367
mp-624502,NaCoPO4,2.9918
mp-1205341,NaCoSO4F,2.8685
mp-24910,NaCr(GeO3)2,2.6628000000000003
mp-1210128,NaCr(PS3)2,1.523
mp-1180005,NaCr(SO10)2,0.0232
mp-19367,NaCr(SiO3)2,2.8719
mp-18851,NaCr(WO4)2,2.264
mp-1221115,NaCr12Si8BrO28,2.1259
mp-1221145,NaCr12Si8ClO28,2.1567000000000003
mp-1120815,NaCr2BiO6,0.03919999999999968
mp-1210261,NaCr2FeO8,1.3182
mp-1040460,NaCr2P2O9,0.679
mp-19280,NaCr3O8,1.791
mp-850999,NaCr4O12,0.03270000000000006
mp-1103969,NaCr5Se8,0.058800000000000185
mp-773138,NaCrAsCO7,0.9438
mp-773175,NaCrCSO7,2.266
mp-560001,NaCrF4,3.0477
mp-646192,NaCrF6,1.374
mp-850503,NaCrH22N6(Cl2O)2,3.8302
mp-976447,NaCrH8(NF3)2,3.9976
mp-578614,NaCrO2,2.8907
mp-24925,NaCrP2O7,2.7103
mp-769599,NaCrPCO7,0.7245
mp-637292,NaCrS2,1.1490999999999998
mp-3332,NaCrSe2,0.6664000000000003
mp-554430,NaCu(IO3)3,0.4349000000000003
mp-761042,NaCu(PO3)3,0.5954999999999997
mp-776597,NaCu(PO3)4,0.7094
mp-1103905,NaCu2(SO5)2,0.07489999999999998
mp-1210264,NaCu2(SeO5)2,0.03620000000000001
mp-1221084,NaCu2H3(SO5)2,0.4197
mp-780403,NaCu3O2,1.2689
mp-1186162,NaCu3Te2,0.125
mp-510328,NaCu5C6,1.7390999999999996
mp-1210396,NaCu5Sb2As6(H9O17)2,0.024100000000000232
mp-1196410,NaCu5Se2Cl3O8,0.011500000000000066
mp-772118,NaCuCSO7,0.4258000000000001
mp-505085,NaCuF3,0.019200000000000102
mp-1201766,NaCuH28CS6(N2O7)2,3.3308
mp-997041,NaCuO2,0.44030000000000014
mp-755492,NaCuP2O7,0.7036
mp-581303,NaCuPO4,0.4311999999999996
mp-7433,NaCuSe,0.05120000000000013
mp-7434,NaCuTe,0.6331999999999995
mp-40478,NaDy3Ti2(SbO7)2,2.4818
mp-1210040,NaDyCl4,4.7668
mp-1195286,NaDyH2S2O9,5.5546000000000015
mp-752672,NaDyO2,4.0436
mp-1204537,NaDyP2H2CO7,0.4648
mp-999490,NaDyS2,2.2856
mp-999488,NaDySe2,1.8635
mp-1221056,NaDyTi2O6,2.3521
mp-1221047,NaEr(MoO4)2,3.2242999999999995
mp-14691,NaEr(PO3)4,5.5405
mp-12384,NaEr(PS3)2,2.5369
mp-1210594,NaEr(ReO5)4,0.4624000000000002
mp-10476,NaEr(SO4)2,5.7442
mp-29083,NaErCl4,4.985
mp-1210068,NaErCu2F8,0.9332
mp-674459,NaErF4,6.8659
mp-17487,NaErGeO4,3.6107
mp-5586,NaErO2,4.0544
mp-10935,NaErPO4F,5.5176
mp-3613,NaErS2,2.3333
mp-8584,NaErSe2,1.9258
mp-1221068,NaErTi2O6,2.3881
mp-1212317,NaEu(ReO5)4,0.06830000000000025
mp-24991,NaFe(GeO3)2,2.7231
mp-1190931,NaFe(MoO4)2,2.5453
mp-764111,NaFe(PO3)3,3.9641000000000006
mp-1179885,NaFe(SO)2,0.04310000000000014
mp-1102092,NaFe(SO4)2,2.0744
mp-1197715,NaFe(SeO3)2,2.2548
mp-566412,NaFe(SeO4)2,1.8817
mp-510615,NaFe(SiO3)2,2.8631
mp-565956,NaFe(TeO3)2,2.1497
mp-25534,NaFe(WO4)2,2.5429
mp-1101699,NaFe11O17,0.7158
mp-567233,NaFe2(MoO4)3,1.0892000000000002
mp-1210447,NaFe2(PO4)2,1.7096
mp-1204837,NaFe2(Si2O5)3,2.0464
mp-743857,NaFe2H3(SO4)2,3.7334
mp-1221050,NaFe2Mo2H3O10,2.7018
mp-1197635,NaFe2P2H5O11,2.5253
mp-1193301,NaFe2P2HO8,3.1813
mp-1210072,NaFe2PbF9,2.7762
mp-565637,NaFe3(PO4)3,0.4312
mp-604429,NaFe3H6(SO7)2,1.8908
mp-541405,NaFe3O5,1.5608
mp-744713,NaFe3P2(H4O7)2,2.2696
mp-566066,NaFe3Si3O10,1.3599
mp-566375,NaFe4(MoO4)5,1.3009000000000002
mp-764200,NaFe5O8,1.5414000000000003
mp-1221452,NaFe6H12S4O29,0.10059999999999993
mp-1205097,NaFe7(PO4)6,0.4957000000000002
mp-1121875,NaFe9Si6B3H2O31,1.2319999999999998
mp-1210493,NaFe9Si6B3H3O31,0.03370000000000006
mp-773210,NaFeAsCO7,0.09519999999999997
mp-1210021,NaFeAsO4F,2.2652
mp-1101655,NaFeBO3,2.7939
mp-541793,NaFeBP2H3O10,2.6123
mp-1211025,NaFeBP2O11,0.050600000000000006
mp-1210192,NaFeBr4,0.9935
mp-770059,NaFeCSO7,1.7637
mp-27514,NaFeCl4,1.2305
mp-556941,NaFeF3,3.0099
mp-556098,NaFeF4,3.3274
mp-1193859,NaFeH4SO6F,3.5165
mp-19359,NaFeO2,1.9919
mp-781698,NaFeO3,0.7941999999999999
mp-1199438,NaFeP2(O3F)2,2.5491
mp-764137,NaFeP2O7,2.5268
mp-744775,NaFeP3H7O13,2.6593
mp-769633,NaFePCO7,0.06909999999999994
mp-1200387,NaFePH2(CO3)2,3.6189
mp-19226,NaFePO4,3.8275
mp-1221058,NaFeSnO4,1.8363
mp-1020596,NaGa(GeO3)2,2.6432
mp-706544,NaGa(H2N)4,2.7434
mp-1202879,NaGa(SeO3)2,3.2153000000000005
mp-6822,NaGa(SiO3)2,4.1707
mp-554193,NaGa(TeO3)2,3.2430000000000003
mp-1200040,NaGa11O18,0.05059999999999998
mp-1199836,NaGa2P2O9,0.3749
mp-759759,NaGa3P2(HO3)4,4.2090999999999985
mp-570622,NaGa3Se5,1.5028
mp-29462,NaGa3Te5,0.9918999999999998
mp-753022,NaGa5O8,1.5017999999999998
mp-1221042,NaGa6AgTe10,0.8402999999999996
mp-28679,NaGaBr4,3.483
mp-1190761,NaGaCl4,4.2791
mp-1210845,NaGaGeO4,3.1141
mp-23918,NaGaH4,4.7345
mp-865095,NaGaH8(NF3)2,5.8536
mp-3338,NaGaO2,2.8582
mp-1210133,NaGaP2O7,4.2572
mp-560632,NaGaSiO4,3.8215
mp-1094098,NaGaTe2,1.3847
mp-561131,NaGd(PO3)4,3.3308
mp-1190797,NaGd3GeS7,1.3364000000000005
mp-40451,NaGd3Ti2(SbO7)2,2.0437000000000003
mp-28156,NaGdCl4,2.47
mp-1210079,NaGdCu2F8,0.9963
mp-1221034,NaGdF4,4.4903
mp-18547,NaGdGeO4,3.2576
mp-559407,NaGdH2S2O9,2.9139000000000004
mp-5088,NaGdO2,3.1172000000000004
mp-1202938,NaGdP2H2CO7,0.4355999999999999
mp-707097,NaGdRe4(H2O5)4,3.1404
mp-8260,NaGdS2,1.8267
mp-999489,NaGdSe2,1.3585
mp-18515,NaGdSiO4,3.2325
mp-1221012,NaGdTi2O6,2.3179000000000003
mp-42981,NaGdTiNbO6F,2.3485000000000005
mp-541513,NaGdTiO4,2.2356000000000003
mp-1186168,NaGdTl2,0.06079999999999953
mp-29657,NaGe,0.6651999999999998
mp-542919,NaGe2(PO4)3,3.832
mp-14433,NaGe2N3,2.3268
mp-558862,NaGe4(PO4)3,4.3844
mp-1205227,NaGe4(PbO4)3,0.026600000000000183
mp-13674,NaGeAu3,0.05120000000000013
mp-768143,NaGePCO7,3.2699
mp-6526,NaGeSbO5,1.9731000000000003
mp-23870,NaH,3.7666
mp-1202992,NaH12AuC4(SO3)4,2.1508000000000003
mp-555975,NaH12C4S2BrO2,4.3026
mp-1202543,NaH12RuC4S2(Cl2O)2,0.2377999999999999
mp-720100,NaH18C9I(NO)3,0.1662
mp-1190311,NaH2(SO2)2,3.7119
mp-1194938,NaH24Ru(C2N5)4,0.2585
mp-1179975,NaH2BrO5,3.0524
mp-758632,NaH2C2N3O,3.7863
mp-601202,NaH2CSO4F3,5.766400000000001
mp-540550,NaH2ClO5,5.2933
mp-23850,NaH2N,1.9459
mp-721314,NaH2SO4,5.3052
mp-707395,NaH2SeO4,4.1128
mp-738668,NaH3(CO2)2,4.6376
mp-1220990,NaH3(SeO3)2,4.296
mp-696174,NaH3C2O5,3.1617
mp-709432,NaH3C4S4(OF)12,6.2957
mp-690653,NaH3CN4O,4.8789
mp-24193,NaH3O2,4.3479
mp-696347,NaH3SO5,5.3485000000000005
mp-761916,NaH4Au(Br2O)2,0.9742
mp-23674,NaH4BrO2,4.2539
mp-706281,NaH4CNO2,5.8252000000000015
mp-721712,NaH4CSNO2,3.9944
mp-504600,NaH4ClO2,4.923
mp-696512,NaH4IO2,3.6957
mp-1220998,NaH4IO7,1.0532
mp-708984,NaH5CO4,4.8131
mp-733973,NaH5S2O9,0.8792
mp-540554,NaH5SO4,3.9652
mp-505179,NaH6BrO5,2.1492
mp-1211315,NaH6C2S2N3O2,3.0404
mp-1197676,NaH6C4SN3O5,2.3594
mp-1199928,NaH6CN2ClO2,4.9128
mp-1199991,NaH6CSNO3,2.9582
mp-23986,NaH6ClO5,3.0156
mp-699477,NaH6RuN(ClO)4,0.2793000000000001
mp-1198497,NaH8C2S2NO5,5.4344
mp-1210388,NaH8CN5O3,4.2435
mp-733637,NaH8O5,3.5073
mp-1193688,NaH8Rh(N2O3)4,2.6688
mp-540714,NaH8SNO6,4.9987
mp-707532,NaH8SeNO6,3.8639
mp-625378,NaH9O5,4.66
mp-634434,NaHCN2,4.0009
mp-23684,NaHCO2,4.9002
mp-696396,NaHCO3,5.2718
mp-27837,NaHF2,6.9678
mp-696315,NaHNO2,2.9794
mp-626000,NaHO,2.9879
mp-634657,NaHS,3.1577
mp-634378,NaHSO4,5.487
mp-1220837,NaHSeO3,4.0057
mp-1220802,NaHSeO4,3.3653
mp-40161,NaHf2(PO4)3,5.0443
mp-571189,NaHf2CuSe5,0.4765999999999999
mp-1220815,NaHf2TiF11,0.09689999999999976
mp-554121,NaHf2VF11,3.1712
mp-505448,NaHfCuSe3,0.3845000000000001
mp-1039713,NaHfMg30O31,0.5741000000000005
mp-767535,NaHfPCO7,4.577
mp-1220764,NaHfScO4,4.106400000000002
mp-1097361,NaHg2Au,1.3744999999999998
mp-1096340,NaHg2Bi,0.1690999999999998
mp-23110,NaHg2IO2,1.379
mp-1096017,NaHg2Sb,0.1862999999999997
mp-608490,NaHgCl3,2.5331
mp-8153,NaHgPO4,1.4380000000000002
mp-1195468,NaHo(PO3)4,5.586200000000002
mp-676779,NaHo2F7,5.8348
mp-867968,NaHo4Ge2O11,0.6627000000000001
mp-1220852,NaHo9(Si3O13)2,4.404
mp-1209968,NaHoCl4,4.8213
mp-675798,NaHoF4,6.8743
mp-18334,NaHoGeO4,3.6055
mp-755617,NaHoO2,4.0048
mp-1203462,NaHoP2O7,5.344600000000002
mp-5694,NaHoS2,2.3055000000000003
mp-999474,NaHoSe2,1.8867
mp-1220792,NaHoTi2O6,2.3781
mp-554948,NaI(OF)2,4.2539
mp-559065,NaI3O8,3.1308
mp-1210047,NaIO2,0.20179999999999956
mp-22989,NaIO3,3.6962
mp-27401,NaIO4,1.856
mp-1210790,NaIn(C2O5)2,0.8786
mp-1105143,NaIn(GeO3)2,2.3675
mp-1196607,NaIn(IO3)4,3.1641
mp-651301,NaIn(MoO4)2,3.5942
mp-1220941,NaIn(MoSe)6,0.7741000000000002
mp-6333,NaIn(SiO3)2,3.4798
mp-1194878,NaIn(TeO3)2,2.9822
mp-25649,NaIn(WO4)2,3.4845
mp-1095961,NaIn2Ag,0.0990000000000002
mp-1097229,NaIn2Bi,1.2432
mp-1093609,NaIn2Pb,0.06680000000000019
mp-1096077,NaIn2Sn,0.09380000000000033
mp-559710,NaInAs2O7,2.3176
mp-757312,NaInBP2HO9,3.9372
mp-28569,NaInBr4,2.8099
mp-1210406,NaInH12(SeO7)2,3.4472
mp-643394,NaInH8(NF3)2,5.0077
mp-28570,NaInI4,2.4494
mp-5175,NaInO2,1.9142
mp-6290,NaInP2O7,3.7446
mp-1097536,NaInPd2,0.007500000000000284
mp-1220784,NaInSn2,0.009199999999999877
mp-559868,NaLa(CO3)2,3.9031
mp-1199865,NaLa(GaS2)4,2.2504
mp-569491,NaLa(GaSe2)4,1.6428000000000005
mp-1220757,NaLa(MoO4)2,3.5786
mp-6741,NaLa(PO3)4,5.095599999999999
mp-557840,NaLa(SO4)2,4.1818
mp-559903,NaLa(SeO3)2,3.5573
mp-1200482,NaLa(SeO5)2,0.4856
mp-1220735,NaLa(WO4)2,4.3353
mp-12337,NaLa2OsO6,0.5168999999999997
mp-6389,NaLa2RuO6,0.4821
mp-1220854,NaLa2TaTi2O10,2.3574
mp-1221053,NaLa2TaTi2O12,0.5206
mp-690559,NaLa2Ti2MnO9,0.00790000000000024
mp-569580,NaLa4I7N2,2.8338
mp-1220861,NaLa6Ga3S14,1.9229000000000005
mp-569905,NaLa6OsI12,0.4035000000000002
mp-1220900,NaLa9(Ge3O13)2,3.7706
mp-697828,NaLaCoWO6,2.2846999999999995
mp-1220826,NaLaF4,6.167000000000002
mp-557508,NaLaH2S2O9,4.6572000000000005
mp-1039932,NaLaMg30O32,4.436300000000001
mp-9239,NaLaMgTeO6,2.543200000000001
mp-565623,NaLaMgWO6,3.4890000000000003
mp-25027,NaLaMnWO6,2.6396999999999995
mp-1220780,NaLaNb4O12,1.3404999999999998
mp-755586,NaLaO2,3.2411000000000003
mp-1195950,NaLaP2H4CO7,4.7084
mp-560939,NaLaP2O7,4.4754000000000005
mp-1220714,NaLaS2,2.6091999999999995
mp-1220822,NaLaScNbO6,2.925
mp-1220803,NaLaScSbO6,3.3322000000000003
mp-999472,NaLaSe2,2.2767
mp-1020648,NaLaSiO4,4.454600000000001
mp-1220741,NaLaTa2O7,2.2524
mp-1220785,NaLaTi2O6,2.0699000000000005
mp-6514,NaLaTiO4,2.4214999999999995
mp-1220787,NaLaZr2O6,3.711500000000001
mp-1220728,NaLi(AsS2)2,1.4216000000000002
mp-1101663,NaLi15V16O48,3.0517
mp-693857,NaLi2Al3(SiO4)3,2.955
mp-1111553,NaLi2AlF6,5.8337
mp-1111350,NaLi2AsF6,3.6192
mp-9066,NaLi2AsO4,3.8891
mp-1093741,NaLi2Au,0.6534
mp-1020646,NaLi2B(PO4)2,5.8333
mp-560189,NaLi2BO3,3.9589
mp-865101,NaLi2Bi,0.32509999999999994
mp-764251,NaLi2CoPCO7,2.9398
mp-772706,NaLi2FePCO7,3.951
mp-1111142,NaLi2GaF6,5.3441
mp-1111346,NaLi2IrF6,1.8335
mp-694955,NaLi2La3Ti6O18,1.9293
mp-771441,NaLi2MnPCO7,3.5916
mp-566795,NaLi2Mo2P3O14,2.4341
mp-764261,NaLi2NiPCO7,3.9389
mp-558045,NaLi2PO4,5.1689
mp-1111095,NaLi2RhF6,1.9166