task_id,composition,band_gap
mp-770523,Li4V2Cr3Fe3O16,1.1795999999999998
mp-775451,Li4V2Cr3Sb3O16,0.5373000000000001
mp-775525,Li4V2Cr3Sn3O16,1.2387000000000006
mp-775632,Li4V2CrTeO12,0.7803
mp-863858,Li4V2F9,0.9706
mp-778593,Li4V2Fe3Co3O16,0.6233999999999997
mp-762757,Li4V2Fe3O10,0.7836000000000003
mp-777892,Li4V2Fe3Sb3O16,0.5435999999999996
mp-762682,Li4V2Fe5O12,0.9009
mp-775495,Li4V2Ni3Sb3O16,0.5773999999999999
mp-776852,Li4V2Ni3Sn3O16,1.4507999999999996
mp-765046,Li4V2OF7,0.9142
mp-765418,Li4V2P4H3O16,0.5921000000000003
mp-770190,Li4V2Si(PO6)2,1.9445999999999997
mp-767577,Li4V2Si3O10,1.8135000000000003
mp-853175,Li4V2Si4O13,2.1985
mp-767460,Li4V2SiGeO10,2.2327
mp-767451,Li4V2SiO8,1.8588
mp-763759,Li4V3(FeO5)2,1.3158000000000003
mp-1177237,Li4V3(FeO6)2,1.5776
mp-764833,Li4V3(OF2)4,1.3840000000000001
mp-765840,Li4V3Co(PO4)4,0.6162999999999998
mp-770636,Li4V3Co2Sb3O16,0.05149999999999988
mp-778284,Li4V3Co2Sn3O16,1.2409000000000003
mp-765171,Li4V3Co3(SbO8)2,0.3433999999999995
mp-775715,Li4V3Co3(SnO8)2,0.6893000000000002
mp-771757,Li4V3Co3(TeO8)2,1.3183999999999996
mp-771711,Li4V3CoO8,0.8467000000000002
mp-771298,Li4V3Cr2Co(PO4)6,0.5522
mp-778220,Li4V3Cr2Fe3O16,1.0240999999999998
mp-780925,Li4V3Cr2O10,1.0365999999999995
mp-777461,Li4V3Cr2Sn3O16,1.3282000000000005
mp-778230,Li4V3Cr3(CuO8)2,0.0015000000000000568
mp-773698,Li4V3Cr3(FeO8)2,0.9240999999999996
mp-777249,Li4V3Cr3(SbO8)2,1.4934000000000005
mp-777670,Li4V3Cr3(SnO8)2,1.0170000000000001
mp-769563,Li4V3Cr3(TeO8)2,0.8393999999999995
mp-772356,Li4V3Cr3(WO8)2,1.5726
mp-850080,Li4V3Cr3O12,1.1799
mp-778301,Li4V3Cr5O16,0.7725999999999997
mp-776143,Li4V3CrO8,1.9579
mp-1177267,Li4V3Cu(PO4)4,0.0968
mp-1177232,Li4V3Cu3(TeO8)2,0.02479999999999993
mp-780933,Li4V3Fe2Ni3O16,0.5396999999999998
mp-779746,Li4V3Fe2Sn3O16,1.4287000000000003
mp-775441,Li4V3Fe3(SbO8)2,1.0193000000000003
mp-776806,Li4V3Fe3(SnO8)2,0.9881999999999996
mp-767773,Li4V3Fe3(TeO8)2,1.3483000000000005
mp-770521,Li4V3Fe3(WO8)2,1.0868000000000002
mp-772417,Li4V3Fe5O16,0.9964999999999996
mp-780819,Li4V3FeO10,1.0781
mp-765701,Li4V3FeO8,1.4867000000000004
mp-1177236,Li4V3Ni(PO4)4,1.4599000000000002
mp-777392,Li4V3Ni2Sn3O16,1.5330999999999997
mp-767203,Li4V3Ni3(SbO8)2,0.4476
mp-775442,Li4V3Ni3(SnO8)2,0.1318999999999999
mp-763968,Li4V3Ni3(TeO8)2,1.3096
mp-777059,Li4V3Ni3(WO8)2,1.0464999999999995
mp-773925,Li4V3NiO8,0.9832
mp-32491,Li4V3O8,1.367
mp-765238,Li4V3OF11,2.1408
mp-774009,Li4V3P4O15,2.2443
mp-1177550,Li4V3P8O29,1.0712
mp-773139,Li4V3Sb5O16,1.2006000000000006
mp-761711,Li4V3SiO10,1.4529
mp-776849,Li4V3Sn3(SbO8)2,0.9329
mp-775654,Li4V3Sn3(TeO8)2,0.8990999999999998
mp-765901,Li4V4(OF3)3,0.5104000000000002
mp-775660,Li4V5(Fe2O9)2,1.3771
mp-850103,Li4V5(FeO6)2,1.3976000000000002
mp-763355,Li4V5(P3O11)2,2.3533
mp-1177160,Li4V5Co3O16,1.2263000000000002
mp-780923,Li4V5Cr2O12,0.9478
mp-777002,Li4V5Cr3O16,1.0910000000000002
mp-1177172,Li4V5Cr4O18,1.3104
mp-769746,Li4V5CuClO15,0.5515
mp-776768,Li4V5Fe3O16,0.6522000000000001
mp-1177166,Li4V5Ni3O16,1.0907999999999998
mp-762292,Li4V5O10,1.2627000000000002
mp-851075,Li4V5O12,0.7449999999999997
mp-765807,Li4V5O9F,1.4687000000000006
mp-775960,Li4V5Sb3O16,0.7078000000000007
mp-868646,Li4V5Sn3O16,1.3684000000000005
mp-777449,Li4V5SnO12,0.3014000000000001
mp-763426,Li4V7(PO4)6,2.0010000000000003
mp-762252,Li4V7O12,0.9192999999999998
mp-868136,Li4V7O9F7,0.8588
mp-767820,Li4V8O13F3,0.9381
mp-1177174,Li4V9O18,1.0338000000000005
mp-1177164,Li4VAs2O9,2.9360000000000004
mp-1177182,Li4VCo3(PO4)4,0.9874
mp-766824,Li4VCo3O8,1.4095000000000002
mp-771088,Li4VCr(TeO6)2,0.75
mp-761696,Li4VCr(WO6)2,1.3739000000000003
mp-1177231,Li4VCr2Ni3(PO4)6,0.012399999999999968
mp-776615,Li4VCr3O8,1.8257000000000003
mp-861474,Li4VF6,3.3877999999999995
mp-766941,Li4VF8,1.9347
mp-761819,Li4VFe(TeO6)2,1.2719
mp-761519,Li4VFe(WO6)2,1.1553
mp-1222547,Li4VFe3(PO4)4,2.4346
mp-765728,Li4VFe3O8,1.1007000000000002
mp-772233,Li4VGa3O8,1.6165999999999998
mp-761403,Li4VNi3(PO4)4,1.5019999999999998
mp-764753,Li4VO3F2,1.5544999999999998
mp-1177177,Li4VO4F,4.058400000000002
mp-782668,Li4VP2(O4F)2,1.5804999999999998
mp-763388,Li4VP2O9,1.2345
mp-780492,Li4VP6(H4O11)2,2.4366
mp-778316,Li4VTe(WO6)2,1.6580000000000001
mp-771999,Li4Y3CrO8,3.2591
mp-771998,Li4Y3FeO8,2.6585
mp-771863,Li4Y3MnO8,1.0335
mp-773348,Li4Y3VO8,1.7863999999999995
mp-557756,Li4Zn(PO4)2,4.676
mp-1147728,Li4Zn(PS4)2,2.7622
mp-1222552,Li4ZnIn2F12,4.2885
mp-765573,Li4Zr3O8,3.6981
mp-1223569,Li4Zr8V3(P3O16)3,3.1365
mp-9308,Li4ZrF8,5.9638
mp-756344,Li4ZrO4,4.3207
mp-780140,Li5(CoO2)4,0.5904000000000003
mp-769436,Li5(CoO2)8,0.33329999999999993
mp-1177137,Li5(CoO3)2,0.4239999999999999
mp-780312,Li5(FeO2)4,1.0707
mp-690572,Li5(NiO2)6,0.20279999999999987
mp-762580,Li5(NiO2)8,0.06669999999999998
mp-758251,Li5AgF8,0.35140000000000016
mp-1222486,Li5Al(SiO4)2,4.5642
mp-15960,Li5AlO4,4.662000000000001
mp-1222442,Li5AuO4,1.9069
mp-1020018,Li5B(SO4)4,6.108199999999999
mp-532413,Li5B7S13,3.5527999999999995
mp-768960,Li5BO4,5.3981
mp-1177146,Li5Bi(P2O7)2,4.2544
mp-26377,Li5Bi2P5O18,3.918800000000001
mp-768986,Li5BiO4,1.901
mp-29365,Li5BiO5,1.3597
mp-755139,Li5BiS4,1.7858000000000005
mp-29025,Li5Br2N,2.0781
mp-1078914,Li5Br3O2,0.6271
mp-1197163,Li5Ca9B7O21F2,4.1936
mp-1106359,Li5Cl3O,3.6165
mp-780435,Li5Co2(PO4)3,2.7404
mp-849671,Li5Co2(SiO5)2,0.2346000000000001
mp-773251,Li5Co2Ni3O10,0.2230000000000003
mp-771437,Li5Co3(NiO5)2,0.4898000000000002
mp-1177135,Li5Co3(SbO5)2,0.20889999999999986
mp-771198,Li5Co3(SnO5)2,0.6481999999999997
mp-1174037,Li5Co3O8,0.7224999999999997
mp-1177584,Li5Co4(NiO6)2,0.2392000000000003
mp-849656,Li5Co4(Si3O10)2,0.17579999999999996
mp-1177142,Li5Co4(SiO4)4,0.3735999999999999
mp-764040,Li5Co5O9F,0.5529000000000002
mp-771191,Li5Co7O16,0.5879000000000001
mp-849472,Li5Co7O3F13,1.9240000000000002
mp-705379,Li5Co9(P2O7)8,0.6744999999999999
mp-778561,Li5CoHO4,2.3556
mp-763995,Li5CoO3F,0.16860000000000008
mp-765070,Li5CoO4,1.6006000000000002
mp-763944,Li5CoOF5,0.06909999999999973
mp-1177153,Li5Cr(CO3)4,1.899
mp-1177176,Li5Cr(P2O7)2,2.5498000000000003
mp-1177439,Li5Cr(SiO3)4,3.4558
mp-768009,Li5Cr17(SiO16)2,1.0661
mp-770005,Li5Cr2Cu3O10,0.17579999999999973
mp-762157,Li5Cr2Fe3(PO4)6,1.0918
mp-765750,Li5Cr2Fe3O10,1.0364
mp-773222,Li5Cr2Fe5O12,0.9676
mp-763843,Li5Cr2O8,0.5179
mp-1177167,Li5Cr2P2(CO7)2,0.8628
mp-1222580,Li5Cr3(PO4)4,2.0413
mp-765278,Li5Cr3FeO8,2.3598
mp-764140,Li5Cr3NiO8,3.0171
mp-850237,Li5Cr4O8,1.1098999999999997
mp-762877,Li5Cr6P5O24,0.5554000000000006
mp-23361,Li5CrCl8,1.7483
mp-1223507,Li5CrFe4(P2O7)5,2.4695
mp-772671,Li5CrO4,1.5454
mp-770603,Li5CrO5,1.2635
mp-770679,Li5CrP2(O4F)2,3.134100000000001
mp-752529,Li5CrS4,0.9084999999999996
mp-769763,Li5Cu(HO2)2,2.7186
mp-755821,Li5Cu(PO4)2,1.8895
mp-771105,Li5Cu2Ni5O12,0.2508999999999997
mp-756553,Li5Cu3(SbO5)2,0.02160000000000029
mp-755495,Li5Cu3(TeO5)2,0.2547999999999995
mp-760811,Li5Cu3F14,0.31509999999999994
mp-1177187,Li5Cu5(TeO6)2,0.04720000000000013
mp-758720,Li5CuF6,1.5709999999999995
mp-753202,Li5CuF8,0.6895999999999998
mp-758945,Li5CuHO4,0.2156
mp-761254,Li5CuP3O11,0.3435000000000001
mp-755243,Li5CuSO2,2.3831999999999995
mp-766644,Li5Fe(CO3)4,1.9253
mp-861244,Li5Fe(P2O7)2,2.0377
mp-767077,Li5Fe(SiO4)2,2.4664
mp-768075,Li5Fe11O16,1.1468000000000005
mp-765302,Li5Fe2(BO4)2,2.0834
mp-1177302,Li5Fe2(PO4)3,3.7295
mp-769566,Li5Fe2Co3O10,1.665
mp-1177151,Li5Fe2P2(CO7)2,1.4297
mp-1177139,Li5Fe2P5O18,2.0848
mp-767724,Li5Fe3(BO3)4,1.148
mp-761617,Li5Fe3(CoO5)2,1.0204999999999995
mp-773311,Li5Fe3(CuO5)2,0.4740000000000002
mp-773354,Li5Fe3(NiO5)2,0.22719999999999985
mp-1177125,Li5Fe3(OF5)2,1.7674
mp-769826,Li5Fe3(SnO5)2,1.4391000000000007
mp-762062,Li5Fe3Co2(PO4)6,2.377
mp-776934,Li5Fe3Cu2(PO4)6,0.13579999999999992
mp-853244,Li5Fe3F14,3.3335
mp-776686,Li5Fe3Ni2(PO4)6,2.3929
mp-775964,Li5Fe3Sb2(PO4)6,1.3685
mp-849492,Li5Fe4(P2O7)4,1.4982
mp-1177117,Li5Fe4(PO4)4,0.03830000000000045
mp-1177108,Li5Fe4(Si3O10)2,1.1989
mp-762773,Li5Fe4P4O16F,3.7324
mp-850359,Li5Fe5(CoO6)2,1.4185999999999996
mp-769830,Li5Fe5(CuO6)2,0.17280000000000004
mp-771555,Li5Fe5(NiO6)2,1.6764999999999994
mp-773169,Li5Fe5(PO4)6,2.1622000000000003
mp-762602,Li5Fe5O12,0.04699999999999993
mp-767328,Li5Fe5Si7O24,2.373
mp-1177129,Li5Fe6P5O24,1.3786999999999998
mp-771531,Li5Fe7O12,1.2209999999999999
mp-851009,Li5Fe7O3F13,2.4014
mp-764474,Li5Fe8(BO3)8,1.4214000000000002
mp-776687,Li5FeF8,3.8558
mp-763812,Li5FeHO4,2.3347999999999995
mp-764644,Li5FeO3F,1.9363
mp-780835,Li5FeO3F2,2.7841
mp-19511,Li5FeO4,3.0546
mp-1177116,Li5FeO4F,0.6138
mp-777907,Li5FeOF5,4.2827
mp-761453,Li5FeP3O11,4.1409
mp-756173,Li5FeS4,0.5527
mp-1222561,Li5Ga(GeO4)2,2.9932000000000003
mp-558082,Li5GaO2,0.4578
mp-4657,Li5GaO4,3.763
mp-531553,Li5GeN3,0.0014000000000002901
mp-674531,Li5GeP3,0.5204000000000002
mp-1211142,Li5IO6,2.5707
mp-778877,Li5InO4,2.4721
mp-775628,Li5La3(SbO6)2,3.1211
mp-761986,Li5La3Nb2O12,3.5219
mp-559776,Li5La3Ta2O12,3.9719
mp-781824,Li5La4TiNb7O28,1.077
mp-1202424,Li5La5(SiN3)4,2.5219000000000005
mp-780259,Li5LaO4,3.3999
mp-1177113,Li5Mg11(WO4)12,1.7714999999999996
mp-765023,Li5Mn(CO3)4,1.0552
mp-1174000,Li5Mn(CoO4)2,0.835
mp-775353,Li5Mn(SiO3)4,1.3495999999999997
mp-861554,Li5Mn(SiO4)2,0.5468000000000001
mp-768071,Li5Mn17(SiO16)2,0.3482000000000003
mp-853271,Li5Mn2(PO4)3,4.1097
mp-1222667,Li5Mn2Co(NiO5)2,0.9829
mp-861490,Li5Mn2Co3O10,0.8184999999999993
mp-764942,Li5Mn2Co5O12,0.2664
mp-1174134,Li5Mn2CoO8,0.9711000000000004
mp-1222520,Li5Mn2CrO8,0.6086
mp-777733,Li5Mn2Fe17O32,0.8412999999999999
mp-761378,Li5Mn2Fe3(PO4)6,2.1701
mp-771109,Li5Mn2Fe3O10,0.18659999999999988
mp-771586,Li5Mn2Fe5O12,0.8106
mp-771234,Li5Mn2Ni3O10,0.2084000000000001
mp-1222526,Li5Mn2NiO8,0.5831999999999997
mp-773470,Li5Mn2V3O10,0.8639999999999994
mp-775533,Li5Mn2V5O12,0.8405000000000005
mp-765794,Li5Mn3(CoO5)2,0.581
mp-763788,Li5Mn3(FeO5)2,1.0632
mp-773349,Li5Mn3(NiO5)2,0.3609
mp-771223,Li5Mn3(SnO5)2,0.7107000000000001
mp-763220,Li5Mn3Co2(PO4)6,0.7876999999999998
mp-764909,Li5Mn3Cr(PO4)4,0.2708000000000004
mp-763907,Li5Mn3Cr2O10,0.9105000000000004
mp-1177150,Li5Mn3Cu(PO4)4,1.4085
mp-777701,Li5Mn3Cu2(PO4)6,0.34830000000000005
mp-763802,Li5Mn3F14,1.3601
mp-773226,Li5Mn3Nb2O10,0.18710000000000004
mp-765333,Li5Mn3O5F3,0.6690999999999998
mp-1174741,Li5Mn3O8,0.7138999999999998
mp-771627,Li5Mn3V2O10,0.7427000000000006
mp-1177149,Li5Mn4(P2O7)4,0.2117
mp-849676,Li5Mn4O8,0.2260999999999997
mp-762706,Li5Mn4P4O16F,3.5293
mp-765971,Li5Mn5(CoO6)2,0.5187999999999997
mp-765929,Li5Mn5(FeO6)2,0.5502000000000002
mp-774245,Li5Mn5(NiO6)2,0.5302000000000002
mp-773716,Li5Mn5(PO4)6,0.4727000000000001
mp-1222696,Li5Mn5(SeO3)8,0.8087
mp-771490,Li5Mn5(SnO6)2,0.09750000000000014
mp-765276,Li5Mn5CoO12,0.1109
mp-771669,Li5Mn5O12,0.5964999999999998
mp-767106,Li5Mn5O9F,0.7522000000000002
mp-769823,Li5Mn5V2O12,0.258
mp-780308,Li5Mn6(BO3)6,0.4242999999999999
mp-698582,Li5Mn7O16,0.7793000000000001
mp-777508,Li5Mn8(BO3)8,0.2379
mp-540023,Li5Mn9(P2O7)8,0.4602999999999999
mp-765322,Li5MnCr3O8,2.0957000000000003
mp-1177082,Li5MnF8,1.8423
mp-763798,Li5MnHO4,0.929
mp-763434,Li5MnO3F,2.3168
mp-767042,Li5MnO3F2,1.2666
mp-775467,Li5MnO4,1.2669
mp-764320,Li5MnOF5,0.5905000000000002
mp-762699,Li5MnP2(O4F)2,1.6278
mp-761571,Li5MnP3O11,4.1628
mp-764142,Li5MnV3O8,1.7765
mp-585269,Li5Mo2P5O18,3.791900000000001
mp-29151,Li5NCl2,1.9425000000000003
mp-771205,Li5Nb2Co3O10,0.8350999999999997
mp-770965,Li5Nb2Co5O12,0.1726000000000001
mp-755312,Li5Nb2Cu3O10,0.3752999999999997
mp-773236,Li5Nb2Fe3O10,0.2818999999999994
mp-771434,Li5Nb2Ni3O10,0.4195000000000002
mp-774085,Li5Nb2V3O10,0.2115999999999998
mp-769316,Li5Nb3OF18,3.9757
mp-1177098,Li5Nb6NiO18,0.4990999999999999
mp-770649,Li5NbO5,2.9243
mp-777968,Li5Ni2(PO4)3,3.8191
mp-765310,Li5Ni2O2F5,2.1843000000000004
mp-773234,Li5Ni3(SbO5)2,0.5954999999999995
mp-771450,Li5Ni3(SnO5)2,0.028999999999999918
mp-765373,Li5Ni3O5F3,0.504
mp-773441,Li5Ni5(SnO6)2,0.12299999999999932
mp-764733,Li5Ni5O9F,0.0423
mp-1177087,Li5Ni6(P2O7)4,0.7259000000000002
mp-504373,Li5Ni9(P2O7)8,0.003900000000000015
mp-1177168,Li5NiHO4,2.4872
mp-765386,Li5NiO3F,3.0179
mp-771876,Li5NiO4,1.8688
mp-765856,Li5NiOF5,1.8952
mp-861091,Li5NiP3O11,3.5263
mp-1040450,Li5P(S2Cl)2,2.8384000000000005
mp-530933,Li5P2N5,3.4494
mp-3838,Li5ReN4,2.8473
mp-5061,Li5ReO6,2.1583
mp-761952,Li5Sb(P2O7)2,4.2905000000000015
mp-26585,Li5Sb2P5O18,3.5081
mp-29364,Li5SbO5,2.9139999999999997
mp-767409,Li5SbS,0.5867
mp-559814,Li5SbS3I2,2.5079
mp-768197,Li5SbS4,1.3184999999999998
mp-775172,Li5Sc2Fe3(SiO3)10,2.7961000000000005
mp-859129,Li5Si2BiO8,2.7601
mp-767256,Li5Si2NiO8,1.1171000000000002
mp-686208,Li5SiN3,2.1598
mp-685991,Li5SiP3,1.3803
mp-774794,Li5Sm3(SbO6)2,3.3604
mp-757844,Li5Sn(P2O7)2,0.3907999999999996
mp-30766,Li5Sn2,0.1448999999999998
mp-775971,Li5Sn5(PO4)6,0.25649999999999995
mp-755013,Li5TaO5,3.7143
mp-760462,Li5Ti(SiO4)2,0.5455000000000005
mp-764281,Li5Ti2Co3O10,0.8963999999999999
mp-763447,Li5Ti2Co5O12,0.5954999999999999
mp-780243,Li5Ti2Cu3O10,0.1917
mp-1177123,Li5Ti2Fe3O10,1.6499000000000006
mp-771453,Li5Ti2Fe5O12,1.5239999999999996
mp-764051,Li5Ti2Mn3O10,1.1208999999999998
mp-771552,Li5Ti2Mn5O12,0.11389999999999967
mp-771224,Li5Ti2Ni3O10,0.5524
mp-770539,Li5Ti2Ni5O12,0.0743999999999998
mp-763978,Li5Ti2V3O10,0.29849999999999977
mp-775049,Li5Ti2V5O12,0.17720000000000002
mp-777015,Li5Ti3Mn2(PO4)6,0.22130000000000027
mp-850911,Li5Ti3V2(PO4)6,0.19599999999999973
mp-769510,Li5Ti4Co3O16,0.33640000000000003
mp-769637,Li5Ti6FeO16,2.6955
mp-683616,Li5Ti7In(PO4)12,2.4695
mp-677039,Li5TiAs3,0.7147000000000001
mp-1177122,Li5TiMn3O8,0.19530000000000006
mp-686129,Li5TiN3,1.5392
mp-675800,Li5TiP3,0.6742000000000001
mp-12283,Li5Tl2,0.03469999999999995
mp-27483,Li5TlO4,1.66
mp-766652,Li5V(CO3)4,2.7054
mp-763573,Li5V(P2O7)2,2.6612000000000005
mp-763444,Li5V(PO4)3,1.5841
mp-761623,Li5V(SiO4)2,0.2182999999999997
mp-771433,Li5V2Co3O10,0.34929999999999994
mp-771557,Li5V2Co5O12,0.4762
mp-764149,Li5V2Cr2O8,0.7391999999999994
mp-773233,Li5V2Fe3O10,1.0231999999999997
mp-770493,Li5V2Fe5O12,1.0949000000000004
mp-781051,Li5V2Ni3O10,0.3066
mp-769829,Li5V2Ni5O12,1.2227
mp-765620,Li5V2OF11,1.479
mp-761605,Li5V3(CoO5)2,0.9904000000000002
mp-776265,Li5V3(FeO5)2,0.2650999999999999
mp-851083,Li5V3(NiO5)2,1.2491000000000003
mp-1177171,Li5V3Bi2(PO4)6,0.2992999999999997
mp-771618,Li5V3Cr2O10,1.7064
mp-764013,Li5V3CrO8,0.7180999999999997
mp-765370,Li5V3Cu(PO4)4,1.4693000000000005
mp-780928,Li5V3F14,2.3303
mp-1177238,Li5V3P8O29,0.8936
mp-853263,Li5V4(PO4)6,0.4039999999999999
mp-765236,Li5V4O12F,2.4582
mp-771611,Li5V4O8,0.8807999999999998
mp-774094,Li5V5(CoO6)2,1.3290000000000006
mp-773995,Li5V5(FeO6)2,1.3115
mp-775091,Li5V5(NiO6)2,1.354
mp-774012,Li5V5Cr2O12,0.2820999999999998
mp-762281,Li5V5O12,0.8980999999999999
mp-765447,Li5V5O9F,1.0942999999999996
mp-779806,Li5V6O5F19,0.3657
mp-764746,Li5V7O12,0.2187000000000001
mp-765717,Li5VCr3O8,1.2528000000000006
mp-765894,Li5VF8,2.483
mp-765788,Li5VO3F2,1.5739999999999998
mp-765359,Li5VO4F,1.48
mp-568287,Li5VP2(O4F)2,2.4559
mp-645938,Li5VP2O9,0.003499999999999837
mp-761355,Li5VP3O11,3.0129
mp-772397,Li5WNO4,3.5267
mp-762450,Li6(NiO2)11,0.33770000000000033
mp-760133,Li6Ag3F10,0.07679999999999998
mp-770562,Li6AlCrO6,2.9988
mp-779415,Li6AlFeO6,2.6554
mp-1222482,Li6AsS5I,1.2837
mp-769411,Li6B3SbO9,3.5961
mp-1020024,Li6B4O9,4.8958
mp-770280,Li6Bi(BO3)3,4.186299999999999
mp-779482,Li6Bi2B4SO16,0.13070000000000004
mp-768992,Li6Bi2O7,0.00439999999999996
mp-568365,Li6Br3N,2.2583
mp-767847,Li6Ca3MnC6(O9F)2,4.701300000000002
mp-556301,Li6CaCeO6,2.4639999999999995
mp-764961,Li6Co(SiO4)2,2.6850000000000005
mp-764192,Li6Co11(OF12)2,2.3211
mp-764088,Li6Co2OF11,0.9772
mp-775672,Li6Co3Sb(PO4)6,0.4448000000000003
mp-769575,Li6Co5(P2O7)4,2.9488
mp-1177057,Li6Co6O5F11,0.6181000000000001
mp-505391,Li6CoCl8,0.3229
mp-868421,Li6CoNi5O12,0.19520000000000026
mp-767291,Li6CoNiP2(CO7)2,2.7967
mp-18925,Li6CoO4,2.4
mp-772644,Li6Cr(BO3)3,2.3399
mp-771430,Li6Cr2O7,0.979
mp-770502,Li6Cr3Co(PO4)6,1.6342
mp-775604,Li6Cr3Cu(PO4)6,0.002899999999999903
mp-770489,Li6Cr3Fe(PO4)6,2.3776
mp-761533,Li6Cr3Ni(PO4)6,0.33220000000000005
mp-762458,Li6Cr3P6WO24,1.5734
mp-504361,Li6Cr3P8O29,0.2506
mp-762153,Li6Cr3Sb(PO4)6,1.861
mp-773191,Li6Cr3Sb3O16,0.5375999999999999
mp-762941,Li6Cr5(P2O7)4,2.2840000000000003
mp-766740,Li6Cr5CuO12,0.4095999999999997
mp-767818,Li6CrCo3(PO4)6,0.8313000000000001
mp-767353,Li6CrCoP2(CO7)2,1.29
mp-767788,Li6CrFe3(PO4)6,2.3823
mp-767286,Li6CrFeP2(CO7)2,2.4073
mp-1029498,Li6CrN4,1.4398
mp-767290,Li6CrNiP2(CO7)2,1.8454999999999997
mp-772552,Li6CrO4,1.8237
mp-769757,Li6CrO6,0.5179
mp-771364,Li6CrSn3(PO4)6,1.9426
mp-1191302,Li6Cu(B2O5)2,0.9553
mp-760015,Li6Cu5F14,0.016400000000000026
mp-26303,Li6Cu9(PO4)8,0.2721
mp-752512,Li6CuO4,0.1879
mp-1211468,Li6Er(BO3)3,4.76
mp-1211786,Li6Eu(BO3)3,0.0494
mp-772525,Li6Fe(BO3)3,2.0524000000000004
mp-777322,Li6Fe(O2F)2,1.0125
mp-780876,Li6Fe(OF)3,2.7067
mp-768001,Li6Fe(SiO4)2,3.7361
mp-777253,Li6Fe2O5F2,1.9382
mp-771083,Li6Fe2P(CO4)4,1.305
mp-761442,Li6Fe3Co(PO4)6,1.7217999999999998
mp-769476,Li6Fe3Cu(PO4)6,0.3600000000000001
mp-1177017,Li6Fe3P8O29,0.02590000000000001
mp-762448,Li6Fe3Sb(PO4)6,1.3198000000000003
mp-771508,Li6Fe3Sb3O16,0.058799999999999734
mp-778734,Li6Fe3Sn(PO4)6,1.6764
mp-763920,Li6Fe5CoO12,1.5568999999999995
mp-780305,Li6Fe5O12,0.139
mp-765615,Li6Fe5SbO12,0.5689000000000002
mp-764894,Li6Fe5WO12,1.6384000000000003
mp-28828,Li6FeCl8,0.6532999999999998
mp-771373,Li6FeCo3(PO4)6,0.8029000000000002
mp-763063,Li6FeCo9O20,0.5017999999999998
mp-767289,Li6FeNiP2(CO7)2,3.1482
mp-771923,Li6FeO4,2.2934
mp-779924,Li6FeO4F,2.7084
mp-1176997,Li6FeSn3(PO4)6,2.389
mp-16699,Li6Gd(BO3)3,3.0808
mp-27968,Li6Ge2O7,3.8132
mp-772185,Li6Hf2O7,4.4135
mp-12160,Li6Ho(BO3)3,4.7449
mp-675488,Li6I3N,2.3574
mp-762905,Li6Mg(Ni6O13)2,0.6612999999999998
mp-29008,Li6MgBr8,4.6843
mp-769569,Li6MgNi7O16,0.43530000000000013
mp-772526,Li6Mn(BO3)3,1.2196
mp-764386,Li6Mn(FeO3)2,2.629900000000001
mp-767028,Li6Mn(OF)3,2.1441
mp-767202,Li6Mn(OF2)2,2.6568
mp-764382,Li6Mn11(OF12)2,2.1418
mp-850370,Li6Mn2B4SO16,1.6433999999999995
mp-771387,Li6Mn2C4SO16,4.0745000000000005
mp-767745,Li6Mn2O5F2,0.8142
mp-767178,Li6Mn2OF11,0.7967
mp-781126,Li6Mn3(PO4)4,3.3653000000000004
mp-1177025,Li6Mn3Co(PO4)6,0.5448
mp-1174771,Li6Mn3CoO10,0.7044000000000001
mp-771092,Li6Mn3Cr(PO4)6,0.6678
mp-861553,Li6Mn3Cr2Fe3O16,0.3721000000000001
mp-761954,Li6Mn3Cu(PO4)6,0.1927000000000001
mp-1176969,Li6Mn3Fe(PO4)6,0.792
mp-850496,Li6Mn3Nb(PO4)6,0.7097
mp-770421,Li6Mn3Ni(PO4)6,0.40749999999999975
mp-769612,Li6Mn3P6WO24,0.6901000000000002
mp-777030,Li6Mn3P8O29,0.6261999999999999
mp-1177012,Li6Mn3Sb(PO4)6,1.9968
mp-771477,Li6Mn3Sb3O16,0.27810000000000024
mp-776839,Li6Mn3Sn(PO4)6,0.35250000000000004
mp-1177033,Li6Mn3V(PO4)6,0.3482000000000001
mp-504387,Li6Mn5(P2O7)4,3.6838
mp-780442,Li6Mn5Fe(BO3)6,2.6098
mp-763980,Li6Mn5Ni3O16,0.25790000000000024
mp-762407,Li6Mn5O10,0.7210000000000001
mp-780141,Li6Mn5O12,0.7221000000000002
mp-764291,Li6Mn5SbO12,0.1299999999999999
mp-770706,Li6MnAlO6,0.9731
mp-1176970,Li6MnCo3(PO4)6,0.7479000000000002
mp-767318,Li6MnCoP2(CO7)2,2.0074000000000005
mp-767775,Li6MnCr3(PO4)6,1.036
mp-767287,Li6MnCrP2(CO7)2,2.3308000000000004
mp-764758,Li6MnF8,4.5332
mp-771062,Li6MnFe3(PO4)6,1.1778000000000002
mp-781067,Li6MnFe5(BO3)6,2.8379000000000003
mp-767285,Li6MnFeP2(CO7)2,3.6201
mp-762749,Li6MnNi7O16,0.2864
mp-767293,Li6MnNiP2(CO7)2,2.7338
mp-764334,Li6MnO3F2,2.3954
mp-770533,Li6MnO4,2.6186
mp-767576,Li6MnO4F,1.2067
mp-756490,Li6MnS4,1.8486
mp-1176991,Li6MnSb3(PO4)6,0.2300999999999997
mp-761566,Li6MnSiO6,2.9524000000000004
mp-771360,Li6MnSn3(PO4)6,2.5692
mp-778914,Li6MnV3(PO4)6,0.04499999999999993
mp-767281,Li6MnVP2(CO7)2,2.6874
mp-690581,Li6Mo2O7,1.0872000000000002
mp-8804,Li6MoN4,2.6113
mp-34038,Li6NCl3,1.3509000000000002
mp-771588,Li6Nb3Fe3O16,0.013499999999999844
mp-778109,Li6Nb3P8O29,0.06489999999999974
mp-776801,Li6Nb3V3O16,0.6655
mp-762735,Li6NbCo3(PO4)6,0.3901999999999999
mp-763649,Li6NbCr3(PO4)6,0.2645999999999997
mp-765619,Li6NbFe5O12,1.7344000000000004
mp-1176951,Li6NbV3(PO4)6,0.14749999999999994
mp-1198049,Li6Nd(BO3)3,4.5786