task_id,composition,band_gap
mp-1097916,CsCaCl3,5.3337
mp-7104,CsCaF3,6.8717
mp-1193607,CsCaH2N9O,4.1488
mp-644203,CsCaH3,3.1483
mp-998428,CsCaI3,3.6642
mp-1213700,CsCaTa6Cl18,0.1694
mp-6628,CsCd(NO2)3,2.4366
mp-13738,CsCd(PO3)3,4.316
mp-1079080,CsCd4As3,0.21619999999999973
mp-560558,CsCdAuS2,2.0699
mp-541899,CsCdBr3,2.9022
mp-619015,CsCdCl3,2.4914
mp-8399,CsCdF3,3.2880000000000003
mp-1192885,CsCdI3O,0.5859
mp-1195350,CsCdInTe3,1.199
mp-1213689,CsCe(PO3)4,0.20480000000000054
mp-510569,CsCeCuS3,0.7010999999999998
mp-7015,CsCeS2,0.04289999999999949
mp-573969,CsCeSiSe4,0.15280000000000005
mp-552131,CsClO2,2.3389
mp-779389,CsClO3,5.52
mp-30206,CsClO4,5.444000000000001
mp-540895,CsCo(CO)4,3.8385
mp-1225979,CsCoCuF6,0.0733
mp-1202342,CsCoF4,0.16370000000000007
mp-1197964,CsCoH24(C7N4)2,4.1608
mp-1228915,CsCoNiF6,1.001
mp-1147521,CsCoO2,0.19919999999999985
mp-1213696,CsCoPO4,2.9583000000000004
mp-1213686,CsCr(MoO4)2,3.0192
mp-1213684,CsCr(SO4)2,2.6395000000000004
mp-641545,CsCr3O8,1.8862
mp-540569,CsCr5S8,0.2959000000000005
mp-505149,CsCr5Se8,0.022699999999999942
mp-1195248,CsCrAs2O7,2.3493
mp-29616,CsCrCl3,0.14200000000000035
mp-605745,CsCrClO3,2.8242000000000003
mp-1225975,CsCrCoF6,1.9467
mp-556663,CsCrF4,2.6209
mp-1225950,CsCrFeF6,1.4981
mp-25512,CsCrH18Br2N6(ClO4)2,3.5666
mp-25511,CsCrH18N6(ClO2)4,3.9754
mp-850477,CsCrH24(SO10)2,3.9667
mp-1202355,CsCrH24(SeO10)2,3.9853
mp-580597,CsCrI3,0.22120000000000006
mp-1229022,CsCrNiF6,2.9871
mp-651934,CsCrP2O7,2.6766
mp-1103473,CsCrP2S7,1.1332
mp-558907,CsCu(BiS2)2,0.8320000000000003
mp-23017,CsCu2Br3,1.6383
mp-23065,CsCu2Cl3,1.8238
mp-23431,CsCu2I3,1.9006000000000003
mp-579536,CsCu2ICl2,2.017
mp-605196,CsCu3As8H24C8(IO2)4,2.5001
mp-1181597,CsCu3GeSe4,0.6913
mp-553303,CsCu3O2,1.4572
mp-7786,CsCu3S2,1.6846
mp-561033,CsCu5S3,0.3253000000000004
mp-27336,CsCuBr3,0.3732
mp-1025439,CsCuC2,2.0451
mp-23032,CsCuCl3,0.4511999999999999
mp-540921,CsCuF4,1.5224
mp-541037,CsCuO,1.1227
mp-553310,CsCuO2,0.9434
mp-697523,CsCuP3H8O13,0.7879999999999999
mp-1198842,CsCuPS3,2.1712
mp-1201069,CsCuPSe3,1.3446000000000002
mp-18003,CsCuS4,1.7616
mp-1199244,CsCuS6,1.0688
mp-17095,CsCuSe4,1.0932
mp-1213683,CsCuTeS3,1.7793
mp-622861,CsDy(MoO4)2,3.596
mp-1213681,CsDy(WO4)2,3.4318000000000004
mp-1190421,CsDy2Ag3Te5,1.0744000000000002
mp-1213680,CsDy2Cl7,4.5457
mp-1190785,CsDy2Cu3S5,1.5658000000000003
mp-18672,CsDy2Cu3Se5,1.4763999999999995
mp-11122,CsDyCdSe3,2.419
mp-12487,CsDyCdTe3,1.5476
mp-1182549,CsDyN4O15,0.4385000000000001
mp-754138,CsDyO2,2.8359999999999994
mp-984555,CsDyS2,2.2247
mp-1193064,CsDySiS4,2.9756
mp-1102146,CsDyZnSe3,2.147
mp-510462,CsDyZnTe3,1.7130999999999998
mp-1213682,CsEr(MoO4)2,4.0246
mp-569903,CsEr(NbBr3)6,0.9556
mp-561712,CsEr(PO3)4,5.8088
mp-571010,CsEr(TaBr3)6,1.3194
mp-1213193,CsEr(WO4)2,4.7178
mp-1196026,CsEr10(C2I9)2,0.22540000000000004
mp-647152,CsEr13(CoI12)2,0.5342000000000002
mp-1190252,CsEr2Ag3Te5,1.1763999999999997
mp-1213445,CsEr2Cl7,4.5773
mp-18540,CsEr2Cu3S5,1.5296000000000003
mp-542482,CsEr2Cu3Se5,1.5196999999999998
mp-17410,CsEr3Se5,1.5437999999999998
mp-23118,CsEr6CI12,0.2975000000000003
mp-12488,CsErCdTe3,1.5531999999999997
mp-1213650,CsErMnSe3,0.5453999999999999
mp-754055,CsErO2,2.8037
mp-1198204,CsErP2O7,5.1028
mp-561751,CsErS2,2.1449
mp-16972,CsErSiS4,3.0331
mp-568606,CsErTa6Cl18,1.3425000000000002
mp-569107,CsErZnTe3,1.7325
mp-29613,CsEu2I5,1.4069999999999998
mp-1190817,CsEuAsS3,0.3857000000000004
mp-638685,CsEuBr3,0.9373999999999998
mp-1213256,CsEuCl3,1.0936999999999997
mp-1213376,CsEuPO4,1.0236999999999998
mp-1213620,CsEuTa6Cl18,0.1291000000000002
mp-1213406,CsFe(OF2)2,0.1896
mp-565430,CsFe(SO4)2,2.6754
mp-1197505,CsFe2F6,1.3538
mp-19476,CsFe2P5O16,2.608
mp-1197172,CsFe3P3O14,0.02100000000000002
mp-1196710,CsFe5(MoO4)7,1.1265999999999998
mp-1196464,CsFeAgF6,0.23649999999999996
mp-761395,CsFeBP2HO9,2.7268
mp-1197350,CsFeBP3O11,2.4233
mp-1079847,CsFeBr3,0.5072999999999999
mp-1213351,CsFeBr4,1.0549
mp-27570,CsFeCl4,1.4014
mp-1226043,CsFeCoF6,1.4264
mp-555302,CsFeF3,3.2787
mp-554225,CsFeF4,2.8735
mp-746702,CsFeH24(SO10)2,2.8558
mp-745125,CsFeH24(SeO10)2,2.9157
mp-744268,CsFeH4Cl3O2,3.8219
mp-568620,CsFeI4,0.6385000000000001
mp-1225937,CsFeNiF6,2.5931
mp-1080749,CsFeO2,1.9645
mp-25755,CsFeP2O7,2.3933
mp-644325,CsFeSiO4,3.0859
mp-1200733,CsGa(PO3)4,4.323
mp-1213179,CsGa(SO4)2,4.0299
mp-1200987,CsGa(SeO3)2,3.5245
mp-1195725,CsGa2(Se2O7)2,0.2593
mp-555006,CsGa2P5O16,4.6362
mp-574338,CsGa3,0.050899999999999945
mp-573145,CsGa3S5,2.635
mp-1225982,CsGa5(HgSe3)4,0.8009
mp-1213239,CsGaAgF6,0.3614999999999999
mp-1201408,CsGaBP2HO9,4.6498
mp-672251,CsGaBr4,3.3514
mp-608516,CsGaCl4,4.4910000000000005
mp-738629,CsGaH24(SO10)2,5.2373
mp-984550,CsGaH4,4.7997
mp-1225948,CsGaNiF6,4.2448
mp-1213401,CsGaO2,2.9770000000000003
mp-1200666,CsGaP3HO10,4.8848
mp-5038,CsGaS2,3.0547000000000004
mp-510283,CsGaSe3,1.859
mp-17688,CsGaTe2,1.5030000000000001
mp-541789,CsGd(CO3)2,2.7429
mp-1213392,CsGd(MoO4)2,3.0777
mp-573001,CsGd(PO3)4,3.4182999999999995
mp-1213254,CsGd(WO4)2,3.1041000000000007
mp-1191228,CsGd2Ag3Se5,0.8317000000000001
mp-1190455,CsGd2Ag3Te5,0.5759000000000003
mp-1213349,CsGd2Cl7,2.5352
mp-1190996,CsGd2Cu3Se5,0.8202000000000003
mp-1104011,CsGdCdTe3,0.7719999999999998
mp-22291,CsGdHgSe3,1.2745000000000002
mp-755651,CsGdO2,2.4731
mp-9084,CsGdS2,1.7428
mp-630711,CsGdSiS4,1.7265
mp-1104966,CsGdTe4,0.07350000000000012
mp-1273,CsGe,1.3382999999999998
mp-558804,CsGeB3O7,4.5981
mp-553970,CsGeBiS4,2.0122
mp-642739,CsGeBr3,2.157
mp-22988,CsGeCl3,2.6417
mp-1203289,CsGeSbO5,1.6632999999999998
mp-1057286,CsH,2.3475
mp-696987,CsH(CO2)2,2.7051
mp-707209,CsH24Rh(SO10)2,2.8625
mp-707854,CsH24Ru(SO10)2,0.604
mp-1213652,CsH2CN5,4.0581999999999985
mp-696986,CsH2CO3,3.422
mp-1196282,CsH2F3,7.0171
mp-1202437,CsH2SNO3,4.8552
mp-1228884,CsH3(SeO3)2,4.138999999999999
mp-1192000,CsH3AuN,1.1651
mp-1194650,CsH3CN2O,4.24
mp-626417,CsH3O2,4.0949
mp-1198073,CsH4NF2,5.742000000000001
mp-1184037,CsH5N2,2.1604
mp-541005,CsH5O3,4.5517
mp-773494,CsH5S2(NO3)2,4.9117
mp-1203517,CsH6C2S2NO4,5.2605
mp-721753,CsH7(C2O5)2,3.2358
mp-28204,CsH7O4,4.589
mp-31476,CsHC2,4.5867
mp-542704,CsHCO2,4.4082
mp-1238754,CsHCO3,4.9455
mp-24668,CsHF2,6.5186
mp-699173,CsHIF7,4.6065000000000005
mp-625136,CsHO,3.4329
mp-1204209,CsHPt2(SO4)4,0.9256
mp-1183955,CsHS,3.3905000000000003
mp-643586,CsHS2(O3F)2,5.6582
mp-1018678,CsHSO3,5.8302000000000005
mp-1192419,CsHSO4,5.3305
mp-24141,CsHSeO4,3.6209
mp-1190089,CsHf2Br9,3.1466
mp-1213477,CsHf6CCl15,1.2133
mp-1181585,CsHfCu3Se4,1.0364999999999998
mp-1098087,CsHfMg14O15,0.15000000000000036
mp-1038693,CsHfMg30O31,0.0215999999999994
mp-619510,CsHg2Br5,1.9907
mp-568628,CsHg5Cl11,2.6909
mp-1194175,CsHgBr3,1.8999
mp-29845,CsHgCl3,1.9882
mp-561947,CsHgF3,0.7228
mp-1225936,CsHgSbSe3,1.129
mp-1213347,CsHo(MoO4)2,3.5772
mp-1213418,CsHo(NbBr3)6,0.9583
mp-1213191,CsHo(WO4)2,3.3956
mp-1190472,CsHo2Ag3Te5,1.1625
mp-1213367,CsHo2Cl7,4.5622
mp-672258,CsHo2Cu3Se5,1.5657
mp-18505,CsHo3Te5,1.1293999999999995
mp-12490,CsHoCdTe3,1.5502000000000002
mp-1213649,CsHoMnSe3,0.5471999999999997
mp-754154,CsHoO2,2.8172
mp-1078726,CsHoS2,2.3277000000000005
mp-1193331,CsHoSiS4,2.9748
mp-505712,CsHoZnSe3,2.4693
mp-579556,CsHoZnTe3,1.3805000000000005
mp-27662,CsI2Br,1.9762
mp-22876,CsI3,1.8986
mp-28578,CsI3F16,4.1717
mp-571011,CsI4,1.7836
mp-22990,CsICl2,2.2034
mp-28295,CsIO3,3.0912
mp-23489,CsIO4,2.5288
mp-560851,CsIOF4,4.9407
mp-1213321,CsIn(MoO4)2,3.6782
mp-16464,CsIn(PO3)4,4.3152
mp-1229308,CsIn3H6(Se3O10)2,3.5445
mp-559213,CsIn3O5,1.4700000000000002
mp-22007,CsIn5S8,1.2724999999999995
mp-1225942,CsInAgF6,0.1853
mp-1112338,CsInBr3,0.7900999999999999
mp-1112961,CsInCl3,1.5975
mp-1226046,CsInCu(PO3)6,0.4443999999999999
mp-1112960,CsInF3,2.9391000000000003
mp-1213442,CsInH2(SeO4)2,2.638
mp-1194853,CsInHgS3,1.3864
mp-607987,CsInI4,2.2731
mp-755004,CsInO2,1.9381
mp-1200734,CsInP2O7,3.7823
mp-554015,CsK(ClO4)2,5.5307
mp-30577,CsK2,0.012299999999999978
mp-1112328,CsK2AlBr6,3.2836
mp-1112327,CsK2AlCl6,4.1897
mp-1112319,CsK2AlF6,5.6144
mp-1112057,CsK2AlI6,2.1345
mp-1183938,CsK2As,0.7092000000000003
mp-1112325,CsK2AsBr6,2.9226
mp-1112054,CsK2AsCl6,3.3968
mp-1112326,CsK2AsF6,3.4503000000000004
mp-1112322,CsK2AuF6,0.6260999999999999
mp-557807,CsK2AuO2,2.1806
mp-863759,CsK2Bi,0.3027000000000002
mp-571371,CsK2BiCl6,3.916
mp-554962,CsK2CoO2,1.6757999999999995
mp-1190639,CsK2Fe3P4ClO14,3.5958
mp-1112321,CsK2GaCl6,3.5668999999999995
mp-1112316,CsK2GaF6,5.3218
mp-573324,CsK2Ho(PO4)2,4.8777
mp-1112318,CsK2InCl6,3.6959
mp-1112317,CsK2InF6,4.6521
mp-1112315,CsK2IrF6,1.9187
mp-1213137,CsK2LaV2O8,3.7031
mp-1195628,CsK2Mn3P4ClO14,3.5787000000000004
mp-8959,CsK2PdF5,1.8661
mp-581024,CsK2Sb,0.8633999999999997
mp-1112055,CsK2SbCl6,3.1197
mp-1112270,CsK2SbF6,3.0671
mp-8564,CsK2Sc(PO4)2,4.0897
mp-1112309,CsK2ScCl6,4.0883
mp-1110639,CsK2ScF6,5.5006
mp-1111971,CsK2TlF6,3.4583
mp-1112240,CsK2YF6,5.0793
mp-14429,CsK4GaO4,2.4160000000000004
mp-562074,CsK4TlO4,1.8162
mp-654335,CsK5Ru2O9,0.19710000000000005
mp-641018,CsK5Zn4Sn5S17,1.6088999999999998
mp-1095752,CsKAu2,2.9113999999999995
mp-1002083,CsKICl,4.0989
mp-1035964,CsKMg14O15,2.2245000000000004
mp-1040265,CsKMg30O31,2.9409
mp-699557,CsKMo4(P3O13)2,2.3369999999999997
mp-1093922,CsKNa2,0.2791999999999999
mp-17718,CsKNa2Li12(SiO4)4,4.722099999999998
mp-720245,CsKNaLi13(SiO4)4,3.9246
mp-645189,CsKPt6(S3O14)2,1.0952
mp-559375,CsKTeH6SO10,3.3065
mp-1213422,CsKZr6BCl15,1.0135999999999998
mp-1213151,CsLa(MoO4)2,3.3133000000000004
mp-1213403,CsLa(NbBr3)6,0.9806
mp-559234,CsLa(PO3)4,5.0452
mp-560260,CsLa(SO4)2,4.3605
mp-1205125,CsLa(SO6)2,0.4948
mp-1213395,CsLa(TaBr3)6,1.318
mp-1213173,CsLa(WO4)2,3.6108
mp-1213600,CsLa2Br7,3.4902
mp-505815,CsLa2CuSe4,1.0753999999999997
mp-771235,CsLa3O5,3.3658999999999994
mp-1213677,CsLa6FeI10,0.11959999999999925
mp-12491,CsLaCdTe3,1.7300999999999995
mp-1181615,CsLaCl4O3,0.9054
mp-1213618,CsLaH4(SO4)2,2.7430000000000003
mp-1039992,CsLaMg30O32,3.1214000000000004
mp-553248,CsLaNb2O7,1.4413999999999998
mp-1178449,CsLaO2,2.9287
mp-561586,CsLaS2,2.5032
mp-510460,CsLaZnTe3,1.5861
mp-1213380,CsLaZr6CCl18,1.4191000000000005
mp-569543,CsLaZr6FeCl18,1.5905999999999998
mp-5990,CsLi(B3O5)2,5.0778
mp-642740,CsLi(H2N)2,1.997
mp-560667,CsLi(PO3)2,5.6245
mp-643288,CsLi2(H2N)3,0.6708000000000001
mp-697181,CsLi2(HO)3,4.1415
mp-559238,CsLi2BS3,3.0936
mp-606680,CsLi2Br3,4.5596999999999985
mp-1190687,CsLi2Cl3,5.327299999999998
mp-606604,CsLi2F3,7.0403
mp-1197930,CsLi2Gd4(BO3)5,2.6009
mp-569055,CsLi2I3,4.1669
mp-580554,CsLi3Br4,4.0021
mp-571666,CsLi3Cl4,5.2744
mp-555439,CsLi3F4,6.7384
mp-1184020,CsLi3I4,3.765
mp-1019716,CsLi4(BO2)5,4.4885
mp-555082,CsLi5(BO3)2,3.4975
mp-1195536,CsLi5Mn(P2O7)2,4.2638
mp-1178400,CsLi7(NiO3)2,2.434
mp-18704,CsLiBeF4,6.8736
mp-23057,CsLiBr2,4.1375
mp-1188344,CsLiCl2,5.115
mp-615884,CsLiCrO4,3.0634
mp-7594,CsLiF2,6.2744
mp-699459,CsLiH4S2(NO3)2,5.3639
mp-755891,CsLiH4SO5,4.5074999999999985
mp-1190087,CsLiI2,3.7214
mp-1002080,CsLiICl,3.3604000000000003
mp-1098505,CsLiMg30O31,1.9197999999999995
mp-1178398,CsLiMnP3HO10,3.2028
mp-1225894,CsLiMnS2,0.7254
mp-561689,CsLiMoO4,4.424
mp-1178393,CsLiO,2.4162
mp-6726,CsLiSO4,5.2736
mp-1204089,CsLiU(PS4)2,0.11400000000000032
mp-1178391,CsLiWO4,4.4276
mp-1225887,CsLiZnS2,2.4973
mp-1213076,CsLu(MoO4)2,4.0113
mp-1213352,CsLu(NbBr3)6,0.9746
mp-570921,CsLu(NbCl3)6,0.9451999999999998
mp-1213389,CsLu(TaBr3)6,1.3163999999999998
mp-1213268,CsLu2Cl7,4.6603
mp-581696,CsLu2Cu3Se5,1.2562000000000002
mp-1213386,CsLu3F10,6.7335
mp-1226963,CsLu4F13,5.95
mp-12492,CsLuCdTe3,1.5453999999999994
mp-554854,CsLuP2O7,5.1874
mp-1087532,CsLuS2,2.3567000000000005
mp-1191129,CsMg(BrO2)3,0.0088
mp-1229321,CsMg(PO3)3,4.8472
mp-695172,CsMg12Al25Si29O108,4.346
mp-1099260,CsMg14BO15,0.14749999999999994
mp-1036562,CsMg14MnO16,0.3188999999999993
mp-1038225,CsMg30AlO32,3.4472
mp-1098613,CsMg30BO31,1.4037999999999995
mp-1039625,CsMg30BO32,3.6431
mp-1039576,CsMg30BiO32,3.1366000000000005
mp-1039740,CsMg30CrO32,2.8145
mp-1037605,CsMg30FeO32,1.9578999999999995
mp-1038710,CsMg30GaO32,3.0620000000000003
mp-1038041,CsMg30MnO32,1.8363
mp-1038732,CsMg30SbO32,2.5737999999999994
mp-1039950,CsMg30SiO32,0.4503000000000004
mp-1098350,CsMg30TiO32,0.4028999999999998
mp-1098527,CsMg30WO32,2.6783
mp-695133,CsMg4Al9(SiO4)9,4.0440000000000005
mp-1098281,CsMg6BO7,1.0671999999999997
mp-1099263,CsMg6BO8,0.6036999999999999
mp-1225922,CsMgAlF6,6.837000000000001
mp-1193046,CsMgAs(H6O5)2,4.1911000000000005
mp-1019721,CsMgBO3,3.1495999999999995
mp-29750,CsMgBr3,4.0445
mp-23004,CsMgCl3,5.126099999999999
mp-1225938,CsMgCoF6,1.7729
mp-8401,CsMgF3,6.7028
mp-1225928,CsMgFeF6,3.4628
mp-1225927,CsMgGaF6,5.4755
mp-721171,CsMgH12(ClO2)3,4.9182
mp-571020,CsMgH3,2.9047
mp-29751,CsMgI3,3.3159
mp-1225951,CsMgInF6,4.4311
mp-1225959,CsMgNiF6,1.9934
mp-761178,CsMgP(H6O5)2,4.7134
mp-18329,CsMgPO4,4.6322
mp-1190594,CsMn(OF2)2,0.3487999999999998
mp-566977,CsMn(PO3)4,1.6921
mp-1226083,CsMn(PO3)6,0.2793999999999999
mp-566592,CsMn2V2ClO7,1.8915
mp-567499,CsMn4Cl9,1.9101
mp-505016,CsMnAs,0.011600000000000056
mp-23048,CsMnBr3,1.2909000000000002
mp-1213628,CsMnBr3O2,0.3163
mp-23336,CsMnCl3,1.4873
mp-1194554,CsMnCl3O2,0.4542
mp-505752,CsMnCr(CN)6,0.1422
mp-1228863,CsMnCrF6,1.4701
mp-558702,CsMnF3,3.4542
mp-617871,CsMnF4,1.9446
mp-1228982,CsMnFeF6,1.1201
mp-1204881,CsMnGa2P3(H2O7)2,3.3421000000000003
mp-744823,CsMnH24(SO10)2,1.8193
mp-762550,CsMnH4(OF2)2,2.1071
mp-1202031,CsMnH4Cl3O2,3.9398
mp-540609,CsMnI3,1.0158
mp-1204512,CsMnInTe3,0.5401000000000002
mp-699398,CsMnMo(OF)3,0.018799999999999928
mp-1204958,CsMnN9,1.5952000000000002
mp-18994,CsMnO4,2.2208
mp-25555,CsMnP3HO10,0.8596000000000001
mp-1204906,CsMo2P2O11,1.8734
mp-1199248,CsMo2P3O13,2.2733
mp-581922,CsMo3Br3Cl4,2.5856
mp-1213536,CsMo3Cl7,2.5911
mp-1213398,CsMo3I3Cl4,2.4272
mp-1199497,CsMo3I7,1.887
mp-645605,CsMo4(PO4)7,2.5434
mp-1201688,CsMoF7,3.4731
mp-1238260,CsMoH2C2SO7,1.0877
mp-1200253,CsMoN3O11,2.755
mp-1203598,CsMoP2HO9,3.2871
mp-651178,CsMoP2O7,3.7947
mp-1204852,CsMoS(ClO)2,0.903
mp-1104441,CsN2,0.04939999999999989
mp-510557,CsN3,4.2196
mp-3288,CsNO2,2.3383000000000003
mp-561851,CsNO3,3.2536
mp-733457,CsNa2(H5O3)3,4.7481
mp-8871,CsNa2BO3,3.2483
mp-866613,CsNa2Be6(BO3)5,4.5079
mp-1096426,CsNa2Bi,0.07369999999999965
mp-1194719,CsNa2Fe3P4ClO14,3.725
mp-1205112,CsNa2H3(SO4)3,5.3553000000000015
mp-721697,CsNa2H4Cl3O2,4.8749
mp-1195634,CsNa2Mn3P4ClO14,3.5111
mp-1096304,CsNa2Sb,0.03770000000000007
mp-17125,CsNa3Li12(GeO4)4,3.7823
mp-1198312,CsNa3P4(H2O5)3,5.0779
mp-505396,CsNa3PbO4,1.4986000000000002
mp-18182,CsNa3TiO4,3.4808
mp-1194022,CsNa3U4(MoO10)2,1.7803999999999998
mp-1226173,CsNa5(FeO3)2,2.1929
mp-581834,CsNa5(WN3)2,1.7775
mp-1226923,CsNaB10(H2O9)2,5.7624
mp-1199766,CsNaB10H31N7,3.4168
mp-542533,CsNaB4H12O13,4.9524
mp-1189817,CsNaC2,3.3076000000000003
mp-998609,CsNaF3,0.017500000000000068
mp-29566,CsNaGe2,0.9986000000000002
mp-1021431,CsNaICl,3.8426
mp-1034881,CsNaMg14O15,1.1264999999999996
mp-1039864,CsNaMg30O31,1.9418
mp-1213599,CsNaNbOF5,4.3343
mp-6973,CsNaS,2.4134
mp-8658,CsNaSe,2.0269999999999997
mp-572951,CsNaSi2O5,4.4582
mp-1225970,CsNaSiO3,3.7843
mp-14380,CsNaSnF6,5.143599999999998
mp-5339,CsNaTe,1.9689
mp-560791,CsNaTiO3,3.3618
mp-6257,CsNb(BO3)2,3.2991
mp-505321,CsNb(CuTe2)2,1.0253
mp-555286,CsNb(PO4)2,2.5389
mp-1226910,CsNb2(SiO3)8,0.00439999999999996
mp-562854,CsNb2BiO7,2.4814000000000003
mp-641699,CsNb2PS10,1.5030999999999994
mp-1195822,CsNb2PSe10,0.9152
mp-573274,CsNb3SBr7,0.0040000000000000036
mp-1213417,CsNb3VCl11,0.14570000000000016
mp-1226881,CsNb4Ag(PS10)2,1.5764
mp-569853,CsNb4Br11,0.30010000000000003
mp-582146,CsNb4Cl11,0.4542000000000002
mp-1147682,CsNbC6,0.09919999999999997
mp-1213080,CsNbCl6,2.2819000000000003
mp-11980,CsNbF6,5.202999999999999
mp-1030663,CsNbN2,1.6441
mp-27556,CsNbO3,3.319
mp-1196826,CsNbS2O9,2.7503
mp-1194659,CsNbV2O8,2.4735
mp-1225952,CsNbWO6,2.7892
mp-1189250,CsNd(ClO)4,1.357
mp-1213270,CsNd(MoO4)2,3.7015
mp-1226879,CsNd(PO3)4,5.5943999999999985
mp-1198706,CsNd(SeO6)2,0.8106000000000001
mp-1213150,CsNd(WO4)2,3.4707
mp-1190370,CsNd2Ag3Te5,1.0233
mp-862772,CsNd2CuSe4,0.8771999999999998
mp-1228954,CsNd2Ti2NbO10,1.5095
mp-38442,CsNd5Se8,1.6224999999999996
mp-510065,CsNdHgSe3,1.3561000000000003
mp-554929,CsNdNb2O7,2.3868
mp-553308,CsNdO2,2.9251
mp-9081,CsNdS2,2.1496
mp-11742,CsNdTe2,1.2919999999999998
mp-12342,CsNdZnTe3,1.3651
mp-1080570,CsNiBr3,0.8212
mp-672303,CsNiC3(SN)3,0.5401
mp-22950,CsNiCl3,0.8181999999999998
mp-557772,CsNiF3,5.3618
mp-1232310,CsNiO2,0.3113999999999999
mp-560600,CsNiPdF5,0.718
mp-1213571,CsNpMoO6,0.1600999999999999
mp-1192392,CsOs2O9,0.9009
mp-1196677,CsOsC3(ClO)3,3.6628
mp-561383,CsOsNO3,2.9529
mp-1192733,CsP(HO)2,5.1796
mp-1197651,CsP(HO2)2,5.2013
mp-1191996,CsP2(HO2)3,5.8642
mp-1195974,CsP2H5O8,5.5247
mp-679983,CsP4N7,3.6615999999999986
mp-1201790,CsP7,1.2713999999999994
mp-675011,CsPF6,7.1409
mp-574928,CsPH3O3F,6.4281
mp-542541,CsPH3O4F,5.6175
mp-767240,CsPH4(NO)2,4.5992
mp-1213232,CsPO3,4.7629
mp-1021466,CsPPb(IF3)2,2.0597
mp-1192530,CsPPbO4,4.0839
mp-562569,CsPPbS4,2.3363
mp-1193277,CsPPbSe4,1.6785
mp-504838,CsPS3,1.9062
mp-1200224,CsPSO2,4.0655
mp-1183920,CsPaO3,2.8571000000000004
mp-1238811,CsPb2Br5,3.0902000000000003
mp-984872,CsPb2Cl5,3.8183
mp-1238789,CsPb2I5,1.935
mp-567629,CsPbBr3,2.0121
mp-675524,CsPbCl3,2.4130000000000003
mp-20282,CsPbF3,3.3389999999999995
mp-540839,CsPbI3,2.5199
mp-29988,CsPd2Cl5,1.3553
mp-5972,CsPd2F5,0.2524
mp-29882,CsPdCl3,1.4655
mp-18698,CsPr(CO3)2,4.5623
mp-649915,CsPr(MoO4)2,3.6948
mp-1213382,CsPr(NbBr3)6,0.9768
mp-17770,CsPr(PO3)4,5.2958
mp-540686,CsPr(SO4)2,5.4136000000000015
mp-1202917,CsPr(SO6)2,0.4334000000000001
mp-1213319,CsPr(WO4)2,3.5343
mp-1190295,CsPr2Ag3Te5,1.1126999999999998
mp-1213617,CsPr2Cl7,4.3756
mp-1190682,CsPr3CI6,0.5978999999999997
mp-1213658,CsPr6FeI10,0.2260999999999997
mp-568707,CsPr9Nb(Br5N2)3,2.3255
mp-11118,CsPrCdSe3,1.9664
mp-12494,CsPrCdTe3,1.7913
mp-7211,CsPrHgSe3,1.6744
mp-9037,CsPrS2,2.2298
mp-12341,CsPrZnTe3,1.3641
mp-573316,CsPt2Se3,1.0491
mp-680370,CsPuP2S7,0.05359999999999987
mp-568508,CsRb(MnCl3)2,1.4307
mp-1111785,CsRb2AlBr6,3.3374
mp-1111710,CsRb2AlCl6,4.3345
mp-1111045,CsRb2AlF6,5.828799999999998
mp-1111837,CsRb2AlI6,2.121
mp-1111784,CsRb2AsBr6,2.9235
mp-1111709,CsRb2AsCl6,3.4004000000000003
mp-1111463,CsRb2AsF6,3.7555
mp-1111832,CsRb2AsI6,2.3568
mp-1185546,CsRb2Bi,0.18270000000000008
mp-1111460,CsRb2BiF6,4.0523
mp-1113428,CsRb2DyCl6,4.4342
mp-1111782,CsRb2ErCl6,4.4377
mp-1111781,CsRb2GaBr6,2.3691000000000004
mp-1111708,CsRb2GaCl6,3.5534
mp-989629,CsRb2GaF6,5.539300000000001
mp-1111039,CsRb2GaI6,1.1875
mp-1111780,CsRb2GdCl6,3.1515
mp-1111779,CsRb2InBr6,2.6764
mp-1113607,CsRb2InCl6,3.715
mp-989595,CsRb2InF6,4.8289
mp-1111394,CsRb2IrF6,2.1745
mp-1111778,CsRb2LuCl6,4.4511
mp-8202,CsRb2PdF5,2.2311
mp-1111393,CsRb2RhF6,2.0533
mp-984761,CsRb2Sb,0.6509999999999998
mp-1196297,CsRb2Sb4F15,4.0109
mp-1111777,CsRb2SbCl6,3.2887
mp-1111454,CsRb2SbF6,3.3524000000000003
mp-1111776,CsRb2ScBr6,3.3122
mp-1111707,CsRb2ScCl6,4.093999999999999
mp-1111453,CsRb2ScF6,5.7561
mp-7380,CsRb2SiF7,5.4872999999999985
mp-1110815,CsRb2TbCl6,4.4297
mp-1111830,CsRb2TlBr6,1.7076
mp-1111451,CsRb2TlF6,3.5274
mp-1110814,CsRb2TmCl6,4.4442
mp-1113330,CsRb2YBr6,3.7653
mp-1113327,CsRb2YCl6,4.4385
mp-1113328,CsRb2YF6,5.3347
mp-1183931,CsRbAu2,1.02
mp-1191554,CsRbC2,3.3639
mp-1096526,CsRbI2,3.7239
mp-1099231,CsRbMg14O15,1.991
mp-1040252,CsRbMg30O31,1.9886
mp-1228944,CsRbMnF6,3.2417
mp-1213522,CsRbMo3P3O17,2.2705
mp-1097089,CsRbNa2,0.2738999999999998
mp-754171,CsRbO,1.2535999999999998
mp-1213079,CsRbSO4,4.8500000000000005
mp-1213588,CsRbZr6BCl15,1.0449000000000002
mp-572546,CsRe(Cl2O)2,1.4875
mp-1228026,CsRe2OsSe4Cl3,2.1048
mp-541867,CsRe3(O3F5)2,3.0448
mp-683890,CsRe3(S2Br)2,1.8862
mp-1202357,CsRe3(Se2Br)2,1.5598
mp-669564,CsRe6S8Br3,1.4922
mp-680185,CsRe6Se8I3,1.1155
mp-27783,CsReBr4,0.16399999999999998
mp-568854,CsReBrCl3,1.1778
mp-567702,CsReCl4,1.1342
mp-29842,CsReF8,1.7142000000000002
mp-17621,CsReO4,4.2585
mp-557451,CsReOF6,2.9741
mp-1199798,CsReS2,1.2826999999999995
mp-8015,CsRuF6,1.3131
mp-29266,CsS,1.7141000000000002
mp-541750,CsS2N(O2F)2,5.4829