task_id,composition,band_gap
mp-1228618,Ba3Mn4PtO12,0.08420000000000005
mp-638406,Ba3MnNb2O9,1.7672999999999996
mp-1214549,Ba3MnO5,1.0126
mp-19622,Ba3MnSb2O9,1.7642999999999995
mp-1195890,Ba3MnV4O14,2.5098000000000003
mp-1228095,Ba3Mo2(NO3)2,3.1499999999999995
mp-566718,Ba3Mo2(P2O9)2,2.384
mp-8863,Ba3MoN4,1.8505000000000005
mp-1205495,Ba3MoO6,2.2233
mp-1182396,Ba3Na(SiO4)2,0.17559999999999998
mp-571621,Ba3Na2(CN2)4,3.3947000000000003
mp-566917,Ba3Na2Cr4F20,3.5814
mp-40873,Ba3Na2Ti3Nb2O15,1.5631
mp-1214668,Ba3Na3(CO3)5,0.008700000000000041
mp-676975,Ba3Na7Ti3Nb7O30,1.1087000000000002
mp-556316,Ba3NaBiO6,1.9255
mp-1194728,Ba3NaGd3(Si3O10)2,3.3785
mp-1197574,Ba3NaMn4Si6O22F,0.6848000000000001
mp-1215159,Ba3NaMn4Si6O23,0.11470000000000002
mp-8960,Ba3NaNbO6,3.0766
mp-559502,Ba3NaNd3(Si3O10)2,4.5793
mp-542123,Ba3NaRu2O9,0.06269999999999998
mp-9745,Ba3NaRuO6,0.5280999999999998
mp-1190024,Ba3NaSbO6,2.853
mp-1205119,Ba3NaSi2B7O20,0.3866000000000001
mp-1228279,Ba3NaSr(SbO4)3,1.5656999999999996
mp-8961,Ba3NaTaO6,3.4045
mp-1019523,Ba3NaY3(Si3O10)2,4.6896
mp-554886,Ba3Nb2(P2O9)2,3.1326
mp-1214502,Ba3Nb2CdO9,2.8688
mp-1214516,Ba3Nb2NiO9,2.756
mp-542201,Ba3Nb2O8,4.499700000000002
mp-7249,Ba3Nb2ZnO9,2.7287
mp-6101,Ba3Nb6(Si2O13)2,2.281
mp-18177,Ba3NbAs3O,1.0685
mp-565953,Ba3NbFe3(SiO7)2,2.3971
mp-12881,Ba3NbGa3(SiO7)2,3.2958
mp-1214606,Ba3Nd(BO2)9,5.0855
mp-1228766,Ba3NdV3O12,3.2479
mp-1215007,Ba3NiF12,1.4408999999999998
mp-25719,Ba3NiRu2O9,0.19279999999999964
mp-19697,Ba3NiSb2O9,2.3423000000000003
mp-1228276,Ba3NiSbRuO9,0.5198
mp-1195,Ba3P14,1.7609000000000004
mp-32606,Ba3P2,0.2216999999999998
mp-1192881,Ba3P2(SeO)4,1.4203
mp-1194785,Ba3P3BrO10,5.0514
mp-1194911,Ba3P3ClO10,5.1404
mp-14289,Ba3P4,0.4815
mp-30088,Ba3P4O13,5.1231
mp-1019524,Ba3P6(N4O3)2,4.5466000000000015
mp-1228136,Ba3Pb(SO4)4,4.6123
mp-1214611,Ba3Pr(BO2)9,5.0615
mp-675426,Ba3PrF9,5.8738
mp-1214989,Ba3PtF12,1.4791
mp-1105268,Ba3Rh(CN)3,0.6576
mp-29911,Ba3Sb2O,0.3329
mp-1194583,Ba3Sb2Se7,1.2346
mp-555414,Ba3Sb4O,0.3586999999999998
mp-1013562,Ba3SbAs,0.15100000000000025
mp-1214632,Ba3SbI3,1.4047
mp-12814,Ba3SbN,0.7075
mp-1013737,Ba3SbP,0.8357999999999999
mp-557994,Ba3Sc(BO2)9,5.2789
mp-14972,Ba3Sc(BO3)3,3.4742
mp-16435,Ba3Sc4(CuO4)3,0.4394999999999998
mp-560519,Ba3ScCO3F7,4.9085
mp-1019526,Ba3Si2(B3O8)2,5.3993
mp-677613,Ba3Si3N5ClO,1.835
mp-29223,Ba3Si5O13,4.514799999999998
mp-985697,Ba3Si6(NO6)2,4.6341
mp-554885,Ba3Si6N4O9,4.372
mp-569842,Ba3SiI2,0.2504
mp-755363,Ba3SiO,0.4217
mp-7765,Ba3SiO5,3.5354
mp-27805,Ba3SiS5,2.8127
mp-1214584,Ba3Sm(BO2)9,5.0668
mp-1228249,Ba3Sm2WO9,1.9170000000000005
mp-1191360,Ba3SmInS6,2.314
mp-1190176,Ba3Sn2,0.5184000000000002
mp-770846,Ba3Sn2O7,1.6702999999999997
mp-556291,Ba3Sn2S7,2.1916999999999995
mp-540923,Ba3SnP3,0.8862999999999999
mp-1096836,Ba3SnS4,1.0865999999999998
mp-1096842,Ba3SnS5,1.6495000000000002
mp-1228025,Ba3Sr(ClF)4,5.3488
mp-1228377,Ba3Sr(CoO3)4,0.9721000000000002
mp-1228453,Ba3Sr(HgO2)4,2.1795
mp-1228193,Ba3Sr(MoO4)4,4.021
mp-1228079,Ba3Sr(SnO3)4,0.4924
mp-1214567,Ba3Sr2As3ClO12,3.9135
mp-1228617,Ba3Sr2Ca4Mg3(SiO4)6,4.9047
mp-1214717,Ba3Sr2Re3ClO15,2.4905
mp-1182538,Ba3Sr4B3O9F5,4.3625
mp-760515,Ba3Sr4O7,2.4311000000000003
mp-1076881,Ba3Sr5Co3(CuO4)5,0.011699999999999822
mp-1075974,Ba3Sr5Ti7MnO24,0.81
mp-1075943,Ba3Sr5Ti8O24,1.7531999999999996
mp-1228149,Ba3Sr9Al4(O4F)4,4.173
mp-1228050,Ba3SrCa2(MoO6)2,2.2616
mp-1228115,Ba3SrCa2(WO6)2,3.2881
mp-1228234,Ba3SrEr2(MoO6)2,0.9402000000000004
mp-756235,Ba3SrI8,3.2338000000000005
mp-1228053,Ba3SrLu2(BiO6)2,1.5655
mp-1228059,Ba3SrMg2(Si2O7)2,4.48
mp-1228054,Ba3SrMg2(TeO6)2,1.8862
mp-540949,Ba3SrNb2O9,3.4284
mp-1079882,Ba3SrO4,2.1819
mp-6641,Ba3SrRu2O9,0.3083999999999998
mp-555078,Ba3SrSb2O9,3.1353
mp-540950,Ba3SrTa2O9,4.0225
mp-1228178,Ba3SrY2(SbO6)2,3.5816000000000003
mp-1228408,Ba3SrY8(CuO5)4,0.1008
mp-1228089,Ba3SrZn2(WO6)2,3.3606
mp-554669,Ba3Ta2CdO9,3.4856
mp-1214485,Ba3Ta2CoO9,2.0795000000000003
mp-1214505,Ba3Ta2MnO9,2.4312
mp-32310,Ba3Ta2NiO9,3.3673
mp-1214475,Ba3Ta2ZnO9,3.3983000000000003
mp-1228489,Ba3Ta4Ti4O21,2.19
mp-1228225,Ba3Ta4TiO15,2.3924000000000003
mp-6169,Ba3Ta6(Si2O13)2,3.0288000000000004
mp-1228561,Ba3Ta6Fe2O21,2.1632
mp-18090,Ba3TaAs3O,1.0819
mp-1190340,Ba3TaFe3(SiO7)2,2.5105000000000004
mp-1195508,Ba3TaN3Cl2,2.1584000000000003
mp-1228505,Ba3TaOF9,0.03469999999999995
mp-1214548,Ba3Tb(BO2)9,5.1491
mp-554264,Ba3Tb2(PS4)4,2.3711
mp-17009,Ba3Te2O9,2.3646
mp-1198919,Ba3Te3(BrO4)2,3.2905000000000006
mp-28102,Ba3Te4O11,3.2309
mp-1228283,Ba3Ti(FeO4)2,1.6412
mp-1199184,Ba3Ti2(O3F5)2,0.7686999999999999
mp-770118,Ba3Ti2O7,2.3732
mp-11772,Ba3Ti3(BO6)2,2.1313
mp-1228624,Ba3Ti4Sb4O21,2.3649
mp-1228063,Ba3TiAl10O20,3.2014
mp-1228231,Ba3TiFe2O9,0.17759999999999998
mp-557072,Ba3TiNb4O15,2.4151
mp-1214495,Ba3TiO5,2.8109
mp-9668,Ba3TiS5,1.4487
mp-1228110,Ba3TiZnWO9,3.0876
mp-1214609,Ba3Tm(BO2)9,5.2411
mp-14385,Ba3Tm(BO3)3,3.8436
mp-14322,Ba3Tm4O9,3.2829000000000006
mp-1214484,Ba3TmRu2O9,0.032200000000000006
mp-1203929,Ba3U2(PO5)4,0.02529999999999988
mp-1199328,Ba3U2As4O19,2.3405
mp-1190457,Ba3UAgS6,0.6183000000000001
mp-1228523,Ba3UFe2O9,0.9771999999999998
mp-1228397,Ba3UIn2O9,1.5067
mp-1190597,Ba3UMnS6,0.07230000000000025
mp-1190712,Ba3UMnSe6,0.10379999999999967
mp-1206273,Ba3UO6,2.1179
mp-566173,Ba3V2(PO5)3,1.6044999999999998
mp-1200758,Ba3V2(SeO4)4,2.7108
mp-1195162,Ba3V2H12(C5O14)2,2.8345
mp-1215049,Ba3V2O7F5,1.3959
mp-19365,Ba3V2O8,3.7427
mp-762970,Ba3V2P6(HO4)6,1.8233
mp-19652,Ba3V2S4O3,0.3835000000000002
mp-1228744,Ba3V4(PO4)6,1.9619000000000004
mp-1194945,Ba3V4CoO14,2.6622000000000003
mp-505392,Ba3V4O13,2.9456
mp-566043,Ba3V4PbO14,3.1539
mp-1195152,Ba3V4ZnO14,3.0487
mp-1214496,Ba3VO5,1.1376000000000004
mp-18867,Ba3W2O9,3.6729
mp-567457,Ba3WCl2O5,3.9374
mp-14743,Ba3WN4,1.965
mp-1228775,Ba3WO6,3.1474
mp-559066,Ba3Y(BO2)9,5.1877
mp-6310,Ba3Y(BO3)3,3.8153
mp-1019527,Ba3Y2(B2O5)3,4.5196000000000005
mp-768402,Ba3Y2Br12,3.5141
mp-768979,Ba3Y2Cl12,4.3262
mp-6829,Ba3Y2Cu2PtO10,0.4394
mp-752420,Ba3Y2F12,7.0439
mp-1178535,Ba3Y2O6,2.8493000000000004
mvc-12299,Ba3Y4(CoO5)3,0.7006000000000001
mp-15751,Ba3Y4O9,3.4394000000000005
mvc-13591,Ba3Y5(CoO5)3,0.9337
mvc-15129,Ba3Y5(CuO5)3,0.18920000000000006
mp-777258,Ba3YF9,6.2277999999999984
mp-772018,Ba3YI9,2.6721000000000004
mp-1228242,Ba3YRuPtO9,0.2239
mp-1228196,Ba3YbIrRuO9,0.0636000000000001
mp-541743,Ba3YbRu2O9,0.14860000000000007
mp-1195688,Ba3Zn2B3O9F,3.3751
mp-1190416,Ba3Zn3Te(PO7)2,2.8782
mp-560544,Ba3Zn5In2O11,1.6172999999999995
mp-543034,Ba3Zn6Si4TeO20,2.6364000000000005
mp-1019525,Ba3ZnB5PO14,4.8405000000000005
mp-1228233,Ba3ZnIrRuO9,0.05010000000000003
mp-545788,Ba3ZnN2O,0.42289999999999983
mp-1214487,Ba3ZnSb2O9,1.9582
mp-755895,Ba3Zr2O7,3.0246000000000004
mp-8570,Ba3Zr2S7,0.8273999999999999
mp-569563,Ba3Zr6BeCl18,1.0267999999999995
mp-1214503,Ba3ZrF10,5.7886000000000015
mp-1228281,Ba3ZrTa4O15,2.4728000000000003
mp-757840,Ba4(PtO3)3,1.5953000000000004
mp-556896,Ba4AgAuO6,1.8533
mp-1228412,Ba4Al(IrO5)2,0.007400000000000073
mp-560978,Ba4Al2O7,3.5745
mp-553943,Ba4Al3Cu2F21,0.6525000000000001
mp-8300,Ba4As2O,0.6692999999999998
mp-1194958,Ba4B10Cl2O19,0.3689999999999999
mp-553990,Ba4B2N4O,2.8031999999999995
mp-1228030,Ba4Bi2O,0.5712999999999999
mp-38357,Ba4Bi3F17,4.9991
mp-555218,Ba4Br6O,4.1634
mvc-15020,Ba4CaCr4Cu2F28,0.5193
mp-1228203,Ba4CaCu2CO9,0.10359999999999968
mvc-13165,Ba4CaFe4Cu2F28,0.24339999999999984
mp-1228205,Ba4CaMn2MoO12,1.879
mp-1228091,Ba4CaTi5O15,1.6301999999999994
mvc-13172,Ba4CaV4Cu2F28,0.7177
mp-1228424,Ba4CaZr5O15,3.1441000000000003
mp-566188,Ba4CeMn3O12,1.8543
mp-23063,Ba4Cl6O,4.3647
mp-1106249,Ba4Co(ReO6)2,1.4251
mp-1228199,Ba4Cr2MoWO12,1.1813000000000002
mp-1199018,Ba4CrGa2(S3F2)2,1.9121
mp-1228061,Ba4Cu2IBrO4,2.2319
mp-675681,Ba4Er3F17,6.4909
mp-1228666,Ba4Fe12Si8ClO35,1.5905
mp-566756,Ba4Fe3(S3F2)2,1.2306
mp-1195190,Ba4Fe3(Se3F2)2,0.8619999999999999
mp-1204862,Ba4Ga2Fe(S3F2)2,2.7909000000000006
mp-30198,Ba4Ga2O7,3.2427
mp-29301,Ba4Ga2S7,2.6305
mp-1228309,Ba4Ga5AgSe12,1.5663999999999998
mp-1195660,Ba4GaB10H7O24,4.3266
mp-1019516,Ba4GaN3O,1.1839
mp-554975,Ba4Gd2Cd3S10,1.5844
mp-1228759,Ba4Ge2Pb(Se4Br)2,1.5823
mp-1228102,Ba4Ge2Te5Se3,0.7288000000000001
mp-14002,Ba4GeAs4,0.8233999999999999
mp-14215,Ba4GeP4,1.0182000000000002
mp-779519,Ba4Hf3O10,3.6039999999999996
mp-1189858,Ba4Hf3S10,0.7406000000000001
mp-756014,Ba4HfO6,3.0638000000000005
mp-29909,Ba4I6O,3.9788
mp-757745,Ba4In2O7,1.3670999999999998
mp-1193666,Ba4In2Te2S5,2.0852
mp-1193105,Ba4In2Te2Se5,1.8542000000000003
mp-622930,Ba4In6O13,0.4417
mp-1195568,Ba4InAgS6,1.6852000000000005
mp-1228129,Ba4InSbO8,2.3915
mp-1228220,Ba4La2SbRuO12,0.7118000000000002
mp-684815,Ba4La2Ti3Nb2O18,2.1891000000000003
mp-744583,Ba4La6Mn5In5O30,0.14010000000000036
mp-683936,Ba4LaGe3SbSe13,1.2329999999999997
mp-1228142,Ba4LaTi4CrO15,1.3106999999999998
mp-1228208,Ba4LaTiNb3O15,2.4841
mp-1214440,Ba4Li(BN2)3,2.0904
mp-1214461,Ba4Li(BiO4)3,0.17280000000000004
mp-7971,Ba4Li(SbO4)3,1.4543999999999997
mp-1192557,Ba4Li2(CdAs2)3,0.3698999999999999
mp-1192527,Ba4Li2(CdP2)3,0.4430000000000001
mp-762032,Ba4Li4Ti19O44,2.3023
mp-15472,Ba4LiCu(CO5)2,0.9265
mp-6011,Ba4LiMo2N7,1.7645
mp-18274,Ba4LiNb3O12,2.5798
mp-16792,Ba4LiTa3O12,3.1112999999999995
mp-6665,Ba4LiW2N7,1.9723
mp-772740,Ba4Lu6O13,2.5346
mp-1019517,Ba4Mg(SiN3)2,1.5934999999999997
mp-1201360,Ba4MgC4(N4F)2,3.7127
mp-1228584,Ba4MgTa10O30,2.4138
mp-1228293,Ba4Mn2Ag2As4O17,1.0074999999999998
mp-18791,Ba4Mn3O10,1.0699999999999998
mp-1197784,Ba4MnGa2(S3F2)2,2.9309
mp-1204819,Ba4MnIn2(S3F2)2,2.4698
mp-1202067,Ba4Mo2O6F13,0.5837999999999999
mp-9705,Ba4Na(BN2)3,2.0441
mp-6575,Ba4Na(BO3)3,3.9839
mp-559352,Ba4Na(BiO4)3,0.2658999999999998
mp-6273,Ba4Na(SbO4)3,1.5158000000000005
mp-561052,Ba4Na2CaTi3Si4(SO13)2,2.1206000000000005
mp-1228581,Ba4Na2W2O11,3.6377
mp-720230,Ba4Na3Nd3P6(O12F)2,4.8457
mp-1197875,Ba4NaAl2B8(BrO6)3,3.7496
mp-1204585,Ba4NaAl2B8(ClO6)3,4.5999
mp-560188,Ba4NaAuO8,1.3962
mp-1199057,Ba4NaB10Cl(O9F)2,5.0791
mp-6841,Ba4NaCu(CO5)2,1.0292
mp-1195423,Ba4NaGa2B8(BrO6)3,3.4957000000000003
mp-1195176,Ba4NaGa2B8(ClO6)3,4.3677
mp-1201802,Ba4NaGe3S10Cl,1.8296
mp-558153,Ba4Nb2(OF4)3,3.3527
mp-1214396,Ba4Nb2O9,2.9261000000000004
mp-1228131,Ba4Nb2WO12,2.7305
mp-1228169,Ba4NbCo2MoO12,0.5966999999999998
mp-1022809,Ba4NbFeO8,2.6971
mp-10409,Ba4Nd2Cd3Se10,1.5191
mp-35986,Ba4Nd3F17,6.3477999999999986
mp-9837,Ba4Nd4Zn3PtO15,2.4838
mp-1228282,Ba4Nd8Cu3PtO20,0.6926000000000001
mp-754354,Ba4OF6,3.6156
mp-28164,Ba4P2O,1.0423999999999998
mp-28823,Ba4P3,0.7464
mp-1203328,Ba4P3HF24,6.0124
mp-782050,Ba4PdO6,1.2879
mp-8727,Ba4PtO6,1.8016
mp-1228183,Ba4Re2NiO12,1.8582
mp-9774,Ba4Sb2O,0.6382000000000003
mp-801028,Ba4Sb2O9,2.8191
mp-28238,Ba4Sb4Se11,1.1995999999999998
mp-1228084,Ba4Sc2Cu2O9,0.5118999999999998
mp-1228167,Ba4ScReWO12,1.8797
mp-1228157,Ba4ScTi4BiO15,1.9358
mp-30101,Ba4Si3Br2,0.3695000000000004
mp-14001,Ba4SiAs4,0.9847
mp-1228229,Ba4SiGeS8,2.4393
mp-14214,Ba4SiP4,1.0893000000000002
mp-1196887,Ba4SiSb2Se11,0.8843000000000001
mp-10410,Ba4Sm2Cd3S10,1.8926
mp-9737,Ba4Sm4Zn3PtO15,2.3851
mp-768510,Ba4Sn3O10,1.1901000000000002
mp-1228355,Ba4SnGe2(S4Br)2,2.1033
mp-1228076,Ba4Sr(SnO3)5,0.4133000000000005
mp-1228722,Ba4Sr2Dy2Co4O15,1.1844
mp-1229271,Ba4Sr2Gd2Co4O15,0.8541000000000003
mp-1228696,Ba4Sr2La2Co4O15,1.1925000000000003
mp-1228201,Ba4Sr2Lu3(BiO6)3,1.6179
mp-1228541,Ba4Sr2Nd2Co4O15,1.2277
mp-1228582,Ba4Sr2Sm2Co4O15,1.2151
mp-1228243,Ba4Sr2Y3(SbO6)3,3.5601
mp-1076896,Ba4Sr4Co3(CuO4)5,0.023800000000000043
mp-1228088,Ba4SrHf5O15,3.557
mp-1228531,Ba4SrRe3ClO15,2.4532
mp-1228585,Ba4Ta10CoO30,2.3421000000000003
mp-1228547,Ba4Ta10FeO30,2.3803
mp-1228660,Ba4Ta10NiO30,2.3844
mp-1192906,Ba4Ta2O9,3.8882
mp-676665,Ba4Ta2TiZnO12,2.2354
mp-6049,Ba4Tb(RuO4)3,0.04059999999999997
mp-17513,Ba4Tb2Cd3S10,2.1033000000000004
mp-1147699,Ba4Ti(CuO3)3,0.2826999999999997
mp-1228496,Ba4Ti11O26,2.5281
mp-29298,Ba4Ti13O30,2.5853
mp-558894,Ba4Ti2PtO10,1.9973
mp-771189,Ba4Ti3O10,2.1142
mp-1228478,Ba4Ti3PtO12,0.9640000000000001
mp-1228218,Ba4Ti5PbO15,1.6688000000000005
mp-15503,Ba4TiAs4,1.036
mp-15502,Ba4TiP4,1.0679000000000003
mp-1228270,Ba4TiSi12(SnO12)3,3.2562
mp-772408,Ba4Tm6O13,2.529
mp-1229229,Ba4U8As2O33,1.5893000000000002
mp-1190418,Ba4USe6,0.055600000000000094
mp-570453,Ba4W(N2Cl)2,2.208
mp-1194618,Ba4Y2Fe2O11,0.25460000000000016
mp-779544,Ba4Y2O7,2.6786
mp-34578,Ba4Y3F17,6.6945
mp-1228051,Ba4YCu(WO6)2,0.3105000000000002
mp-1195127,Ba4Zn4B14Pb2O31,3.6835
mp-14883,Ba4Zr3S10,0.4663000000000004
mp-1228038,Ba4Zr3TiO12,1.6986
mp-769391,Ba4ZrO6,3.1542000000000003
mp-643683,Ba5(Ga3H)2,0.3735
mp-771208,Ba5(Ga3O7)2,2.7217
mp-28252,Ba5(GaS4)2,2.5327
mp-1204617,Ba5(GaSe4)2,1.8806000000000005
mp-1195424,Ba5(In2Sb3)2,0.4504999999999999
mp-28908,Ba5(RuO5)2,0.2281
mp-1199927,Ba5(Si2O7)2,0.2730999999999999
mp-29060,Ba5(SiN3)2,1.4009
mp-1096883,Ba5(SnS4)2,0.8595000000000006
mp-28926,Ba5(TiN3)2,1.4777999999999998
mp-1197073,Ba5Al3F19,6.8991
mp-1228464,Ba5As2(SO6)2,2.397
mp-556761,Ba5As3ClO12,3.996
mp-703591,Ba5B20(H2O19)2,0.10799999999999997
mp-1199246,Ba5B3BrO9,3.7561
mp-560326,Ba5B3CNO9,3.3351
mp-1201345,Ba5B3ClO9,3.7226
mp-557176,Ba5B4(O5F)2,4.5127
mp-3974,Ba5B4O11,3.7594
mp-1228741,Ba5Ce4ZrO15,1.8628000000000005
mp-505813,Ba5Co5ClO13,0.02560000000000029
mp-1204444,Ba5Cr3F18,1.4330999999999998
mp-1214531,Ba5Cr3O12F,0.9795000000000004
mp-1200170,Ba5Cr3O13,0.6708999999999998
mp-29082,Ba5CrN5,0.1227999999999998
mp-559141,Ba5Cu4ClF17,0.02070000000000005
mp-18296,Ba5Dy8Zn4O21,3.3654
mp-558566,Ba5Er2ZrAl2O13,2.5861
mp-1214489,Ba5Er8Ni4O21,2.2376
mp-6416,Ba5Er8Zn4O21,3.3618
mp-1228597,Ba5Fe3W2O15,0.1919
mp-618964,Ba5Fe4S11,0.04570000000000008
mp-1215133,Ba5GaRu2O11,0.04249999999999998
mp-1214525,Ba5Gd2ZrAl2O13,2.4623
mp-19485,Ba5Gd8Mn4O21,2.059
mp-16538,Ba5Gd8Zn4O21,2.7998000000000003
mp-557032,Ba5Hf4S13,0.6352000000000002
mp-1214508,Ba5Ho2ZrAl2O13,2.5600000000000005
mp-6795,Ba5Ho8Zn4O21,3.3644000000000003
mp-1201460,Ba5In3F19,4.7704
mp-772019,Ba5La2Cl16,4.2429
mp-772221,Ba5La3I19,2.4886
mp-1228258,Ba5Li2(TeO5)3,1.1934999999999998
mp-566745,Ba5Li2(WO5)3,2.2925000000000004
mp-1228411,Ba5Li2U3O15,1.2508999999999997
mp-1214534,Ba5Lu2ZrAl2O13,2.5469000000000004
mp-1214642,Ba5Lu8Ni4O21,2.2314
mp-1214612,Ba5MgMnV4(Cl3O7)2,2.6223
mp-1228475,Ba5Mn(Co2O7)2,0.4682000000000004
mp-650764,Ba5Mn3ClO12,1.7299
mp-1214575,Ba5Mn3O12F,1.7671
mp-763829,Ba5Mn5O14,1.0222000000000002
mp-1214620,Ba5Na(GaSb3)2,0.03709999999999969
mp-1229142,Ba5Na2Ru3O14,0.10340000000000016
mp-758845,Ba5Nb2O10,2.3701
mp-1228322,Ba5Nb2O11,2.4083
mp-1228715,Ba5Nb3O3F20,0.6337999999999999
mp-3563,Ba5Nb4O15,2.5991
mp-1228736,Ba5NbIr4O15,0.08900000000000041
mp-19460,Ba5Nd8Mn4O21,1.8889
mp-554501,Ba5Os3ClO15,0.6081000000000003
mp-628618,Ba5Os3NO18,0.6044999999999998
mp-561125,Ba5P3BrO12,4.9636999999999984
mp-558349,Ba5P3ClO12,5.0449
mp-1228113,Ba5P3O12F,5.0608
mp-1204451,Ba5P3O13,0.23529999999999984
mp-17566,Ba5P4,0.9365
mp-29787,Ba5Pt2O9,1.9294999999999995
mp-556721,Ba5Re3BrO15,2.54
mp-556647,Ba5Re3ClO15,2.5307
mp-1214601,Ba5Re3IO15,2.0007
mp-555095,Ba5Re3NO18,2.3
mp-698206,Ba5Re3O16,0.5103
mp-558725,Ba5Ru2Br2O9,0.4718
mp-867790,Ba5Ru2O11,0.3404999999999996
mp-17399,Ba5Sb4,0.4347000000000003
mp-770836,Ba5Sc6O14,3.6435
mp-553884,Ba5Si(Br3O2)2,4.2628
mp-555087,Ba5Si(Cl3O2)2,4.5486
mp-669333,Ba5Si8O21,4.5042
mp-1228552,Ba5SrLa2Fe4O15,2.4088
mp-698854,Ba5SrNd2Fe4O15,2.4045
mp-559378,Ba5Ta2Cl2O9,3.5216000000000003
mp-504554,Ba5Ta4O15,3.0865
mp-1214492,Ba5Tm2ZrAl2O13,2.5616000000000003
mp-1214595,Ba5Tm8Ni4O21,2.2029
mp-6054,Ba5Tm8Zn4O21,3.359
mp-25789,Ba5V3ClO12,4.0709
mp-1198636,Ba5V4(ClO7)2,3.2995
mp-1183410,Ba5V5O14,1.2257000000000002
mp-1214494,Ba5Y2ZrAl2O13,2.6193
mp-861730,Ba5Y3Br19,3.4205
mp-778387,Ba5Y3F19,6.4176
mp-1178584,Ba5Y3I19,2.6124
mp-1199104,Ba5Y8Mn4O21,1.9965
mp-1214479,Ba5Y8Zn4O21,3.3678000000000003
mp-561879,Ba5Yb8Ni4O21,0.14540000000000042
mp-1195124,Ba5Zn2B4(O6F)2,3.5753999999999992
mp-562155,Ba6(NiO3)5,1.2614
mp-1228417,Ba6Al2Rh4O15,0.0020999999999999908
mp-1228122,Ba6Bi2(TeO6)3,2.1741
mp-1227977,Ba6Br2N3Cl,1.102
mp-766336,Ba6Ca11I34,3.4085
mp-1228145,Ba6Ca2Ta(RuO6)3,0.3559000000000001
mp-1228574,Ba6Ca6Mg(CO3)13,4.5986
mp-766337,Ba6CaI14,3.0651
mp-532680,Ba6CdAg2(SnS4)4,1.7026999999999997
mp-541376,Ba6Co25S27,0.034399999999999764
mp-1228594,Ba6Co6O16F,0.17510000000000006
mp-15387,Ba6Cu11F34,0.2531
mp-530144,Ba6Cu34S27,0.010600000000000165
mp-1214541,Ba6Dy2Al4O15,3.9227
mp-1214605,Ba6Dy2Ga4O15,3.5853
mp-555481,Ba6Er2Ga4O15,3.5263
mp-1229259,Ba6Gd(ReO6)3,1.9154
mp-1214682,Ba6Gd2Al4O15,3.4384
mp-569965,Ba6Ge25,0.023900000000000254
mp-554688,Ba6Hf5S16,0.5949
mp-755610,Ba6HfO8,2.4348
mp-1214596,Ba6Ho2Ga4O15,3.547400000000001
mp-1228747,Ba6La2Co4O15,0.6985000000000001
mp-1228690,Ba6La2Fe4O15,2.3754
mp-1228569,Ba6La2Ga4O15,3.4146
mp-775484,Ba6Li2Ti16O39,2.3147
mp-19673,Ba6Lu2(WO6)3,2.9893
mp-1214530,Ba6Lu2Al4O15,3.8707
mp-1214574,Ba6Lu2Ga4O15,3.4815
mp-30942,Ba6Mg11F34,6.5471
mp-18549,Ba6Mg7F26,6.8161000000000005
mp-697671,Ba6Mg7H26,2.9720000000000004
mp-1228107,Ba6Mn2Zn(ClF2)6,4.1041
mp-1228260,Ba6Mn4Co2ClO16,0.38729999999999976
mp-1228733,Ba6Mn4Si12Cl3O34,0.024399999999999974
mp-510224,Ba6Mn5O16,1.2986000000000004
mp-554687,Ba6Na2As2Ru2O17,0.4022000000000001
mp-1214806,Ba6Na2Mn2Nb2O17,1.6755
mp-561784,Ba6Na2Mn2Ru2O17,0.3832
mp-556637,Ba6Na2Nb2P2O17,3.0126000000000004
mp-1228103,Ba6Na2Nb2V2O17,2.8817
mp-774691,Ba6Na2P2Ru2O17,0.34529999999999994
mp-560889,Ba6Na2Si4O15,4.1718
mp-1214895,Ba6Na2Ta2Mn2O17,1.7207
mp-1214664,Ba6Na2Ta2V2O17,3.022
mp-19501,Ba6Na2V2Ru2O17,0.4144999999999999
mp-1214658,Ba6Na2V2Sb2O17,3.1860000000000004
mp-569168,Ba6NaCu3Te14,0.6019999999999994
mp-1214692,Ba6NaNd(SiO4)4,3.6508
mp-560469,Ba6Nb14Si4O47,0.04499999999999993
mp-583297,Ba6Nb4S13O3,2.2867
mp-1228466,Ba6Nd2Al4O15,3.8439
mp-1228695,Ba6Nd2Fe4O15,2.3459000000000003
mp-16662,Ba6Nd2Ti4O17,2.6842000000000006
mp-1228132,Ba6Nd2Y(MoO6)3,1.1120999999999994
mp-1228751,Ba6Pr2Co4O15,0.7132999999999998
mp-1228608,Ba6Pr2Fe4O15,2.3632000000000004
mp-570423,Ba6Pr3I19,1.0197000000000005
mp-554949,Ba6Ru2Pt(ClO6)2,0.6919
mp-16094,Ba6Si25,0.008399999999999963
mp-1204773,Ba6Sn7S20,1.4463
mp-772883,Ba6Sr11I34,3.3618
mp-768732,Ba6SrI14,3.0892
mp-1214513,Ba6Tb2Al4O15,3.929
mp-1214551,Ba6Tb2Ga4O15,3.5923
mp-1197646,Ba6Te10Br2O25,3.0197
mp-556729,Ba6Ti17O40,2.7082999999999995
mp-677246,Ba6Ti2Nb10Si8O51,2.6809000000000003
mp-1228124,Ba6Ti5PtO18,1.9827
mp-555781,Ba6Ti5S15O,0.8273000000000001
mp-1214515,Ba6Tm2Al4O15,3.8872
mp-1214558,Ba6Tm2Ga4O15,3.5074000000000005
mp-583417,Ba6V4S11O5,1.9141
mp-1228593,Ba6Y(ReO6)3,1.9563
mp-1214519,Ba6Y2Al4O15,3.9197
mp-1196872,Ba6Y2Co4O15,1.2165
mp-1198058,Ba6Y2Fe4O15,2.4628
mp-1214542,Ba6Y2Ga4O15,3.6003
mp-16663,Ba6Y2Ti4O17,2.6451
mp-777731,Ba6YBr15,3.8411
mp-777883,Ba6YCl15,4.6917
mp-776782,Ba6YI15,2.955
mp-720249,Ba6Yb6Al13Si11N29O13,0.009000000000000341
mp-569635,Ba6Zn(InCl10)2,3.5668
mp-31026,Ba6Zn7F26,4.4184
mp-1120751,Ba6ZnCo5(SiO4)6,2.8965
mp-1202124,Ba6Zr(Zn3S7)2,1.7620000000000005
mp-755556,Ba6ZrO8,2.6918
mp-23547,Ba7(ClF6)2,6.0482
mp-667379,Ba7Al64O103,4.2537
mp-562764,Ba7B4S13,2.5225
mp-583221,Ba7B4Se13,2.1147
mp-1214422,Ba7BrClF12,5.6208
mp-687011,Ba7Ca2Mn5O20,0.7955000000000001
mp-707874,Ba7Cu3H17,1.4593999999999998
mp-1204692,Ba7Fe6(OF16)2,0.3164
mp-553974,Ba7Fe6CuF34,0.6143000000000001
mp-1214486,Ba7Fe7F34,1.6029
mp-28314,Ba7Ga4Sb9,0.18219999999999992
mp-1198460,Ba7Ga5AgSe15,1.902
mp-1194759,Ba7Ge39,0.032099999999999795
mp-1194795,Ba7GeB3BrO13,3.5585000000000004
mp-1194658,Ba7GeB3ClO13,3.5835
mp-1192196,Ba7In2(Se3F4)2,1.1975999999999998
mp-556644,Ba7MnFe6F34,2.0787
mp-695409,Ba7Na3Ti7Nb3O30,1.114
mp-1228195,Ba7Nb4MoO20,2.6298000000000004
mp-758059,Ba7Pb17O24,2.1197000000000004
mp-559325,Ba7Sc6Al2O19,2.4773
mp-695708,Ba7SiB3NO13,0.1816
mp-1096868,Ba7Sn3S13,2.0592
mp-569754,Ba7Sn3Se13,1.4091999999999998
mp-1214827,Ba7Sn3Te3Se10,1.2203
mp-1228681,Ba7Sr5(MoN4)4,2.0817
mp-1228174,Ba7Ti2Nb4O21,2.5685
mp-1194914,Ba7V6CoCl4O21,2.7688
mp-550470,Ba8(CoO3)7,0.15849999999999964
mp-561502,Ba8B5N10F,2.2163
mp-865213,Ba8Bi4H2O,0.5637000000000003
mp-765612,Ba8Bi4O17,1.0307
mp-1228779,Ba8Ca5Mn3Fe8F56,2.1892