task_id,composition,band_gap
mp-554009,Er4Si3O11F2,5.0561
mp-1192836,Er4Zn5Ge6,0.15520000000000025
mp-675065,Er4Zr3O12,4.1668
mp-1213202,Er5(ReO6)2,0.04760000000000009
mp-1199169,Er5B2(O2F3)3,5.9905
mp-29401,Er5C2Br9,0.8853000000000002
mp-1198488,Er6Al43Mo4,0.032700000000000166
mp-1189721,Er6CoBr10,0.07879999999999976
mp-2162,Er6Fe23,0.003600000000000492
mp-1196832,Er6H40N8O49,2.9229
mp-1188271,Er6IrI10,0.022800000000000157
mp-1225748,Er6Mg(GeS7)2,2.1587
mp-1225784,Er6Mn(GeS7)2,0.9963000000000006
mp-1225711,Er6Mn(SiS7)2,0.9345
mp-1188388,Er6NiI10,0.6643000000000003
mp-1225896,Er6Si11N20O,3.5882
mp-1213424,Er6Ta4Al43,0.014700000000000381
mp-685943,Er7(CuTe4)3,0.3814000000000002
mp-679936,Er7C2I12N,1.1629999999999998
mp-1105583,Er7CoI12,0.44310000000000027
mp-1105808,Er7IrI12,0.3803000000000005
mp-862995,Er8Ga3Co,0.03950000000000031
mp-1190234,Er8In3Co,0.14139999999999994
mp-1225972,Er8Mn3Mo5O28,0.5984000000000003
mp-1226348,Er9Al5S21,2.4077
mp-1226663,Er9B5S21,1.4680999999999995
mp-1225990,Er9Ge4S21,0.05230000000000068
mp-13384,ErAg(PSe3)2,1.7583000000000002
mp-19655,ErAg(WO4)2,3.1893
mp-1197880,ErAgS2,1.4075000000000002
mp-4044,ErAgSe2,1.2832999999999997
mp-12902,ErAgTe2,0.8967
mp-1106277,ErAl3(BO3)4,5.6744
mp-1213112,ErAlGeO5,3.7453
mp-756458,ErAlO3,5.803000000000001
mp-772156,ErAsO4,3.5786
mp-1095614,ErAsS,0.34080000000000066
mp-1102033,ErAsSe,0.2805
mp-1194043,ErBO3,5.6392000000000015
mp-1213271,ErBeNF6,0.05930000000000012
mp-546621,ErBi2BrO4,1.3505000000000005
mp-549709,ErBi2ClO4,1.8499000000000003
mp-551250,ErBi2IO4,1.375
mp-754943,ErBiO3,3.1136000000000004
mp-1206859,ErBrO,4.404
mp-1199532,ErC3O8,0.21629999999999994
mp-1203936,ErC8N4Cl7,1.027
mp-1196391,ErCO4,0.10620000000000007
mp-863029,ErCl3,3.7739
mp-755689,ErClO,5.249599999999999
mp-6185,ErCo(CN)6,4.2943
mp-1200936,ErCoH8C6(N3O2)2,4.7751
mp-638632,ErCoO3,1.4434000000000005
mp-985700,ErCrB4,0.17039999999999988
mp-1213301,ErCrGeO5,2.7356
mp-744580,ErCrHO5,2.4814
mp-19063,ErCrO3,2.51
mp-19240,ErCrO4,0.2458
mp-1213667,ErCu(MoO4)2,1.4123
mp-505167,ErCu(WO4)2,1.2104
mp-1225628,ErCuPbS3,1.6092999999999993
mp-567983,ErCuPbSe3,1.1376999999999995
mp-12454,ErCuS2,1.6292999999999995
mp-675180,ErCuSe2,1.0496
mp-559895,ErCuTe2BrO6,0.3734000000000002
mp-555884,ErCuTe2ClO6,0.3927000000000001
mp-9371,ErF3,7.6163
mp-1199768,ErFeC6(N3O2)2,1.6125
mp-1213524,ErFeC6N6O5,0.25790000000000024
mp-1213525,ErFeGe2O7,2.6091
mp-24956,ErFeO3,1.5703
mp-1213088,ErGaO3,2.8838
mp-18606,ErGe2Ir,0.00649999999999995
mp-17760,ErGe2Pt,0.009000000000000341
mp-559109,ErGeBiO5,3.3459000000000003
mp-860971,ErH(SO4)2,5.757000000000001
mp-1195359,ErH10C6S6N3O17F18,5.6331000000000016
mp-1199285,ErH2C2SNO9,0.4042
mp-1202664,ErH2Cl3O13,5.2002000000000015
mp-1190750,ErH3,0.4213
mp-24640,ErH3(SO4)3,5.494300000000001
mp-1194964,ErH4I3O11,3.7112
mp-675944,ErH9C5(NO4)2,4.4956
mp-504801,ErHO2,3.9821
mp-1206742,ErHSe,1.5341
mp-866003,ErI3,2.0376000000000003
mp-1213243,ErI3O11,0.3397999999999999
mp-1213502,ErIO9,0.5288000000000002
mp-772217,ErInO3,1.9560000000000004
mp-778151,ErLuO3,5.073
mp-1213132,ErMg(BO2)5,6.1487
mp-1185250,ErMg149,0.2856000000000001
mp-19345,ErMn2O5,1.0779
mp-1213032,ErMnFeO5,1.0702000000000005
mp-20172,ErMnGe,0.019199999999999662
mp-1194158,ErMoBrO4,1.9453
mp-565714,ErMoClO4,2.7012
mp-565302,ErMoO4F,3.7276
mp-1213494,ErN7O15,0.011700000000000266
mp-5370,ErNbO4,3.5276
mp-1206712,ErNiBi,0.17189999999999994
mp-21272,ErNiSb,0.2741000000000007
mp-1025483,ErO3,0.272
mp-1072193,ErOF,5.1794
mp-1226297,ErP2H3O10,0.6728999999999999
mp-707202,ErP2H7O10,2.4933
mp-707317,ErP4HO12,5.5546000000000015
mp-4871,ErP5O14,5.2303
mp-558204,ErPH5CO7,3.7117
mp-4006,ErPO4,5.919600000000001
mp-8919,ErPPd,0.014599999999999724
mp-1191596,ErPS,0.2385999999999999
mp-5036,ErPS4,2.1434
mp-1225447,ErPaO4,2.4413
mp-18341,ErPtF7,2.2785
mp-1213022,ErRhO3,0.8994
mp-1101873,ErS2,0.5869
mp-1207375,ErSBr,0.022800000000000157
mp-27616,ErSCl,2.9329
mp-10932,ErSF,1.3243999999999998
mp-1212974,ErSI,1.2670000000000003
mp-1200438,ErSbMo2O9,3.2345
mp-1237008,ErSbO4,2.3371000000000004
mp-11836,ErSbPd,0.2096
mp-16329,ErSbPt,0.4162999999999997
mp-1225475,ErSc(BO3)2,4.5571
mp-1212985,ErScO3,4.4528
mp-1190244,ErScS3,1.8411
mp-1213595,ErSe2NO11,0.5659
mp-1206174,ErSeBr,0.02770000000000028
mp-23086,ErSeClO3,4.3487
mp-27123,ErSeF,2.112
mp-28458,ErSeI,2.309
mp-556999,ErSeO3F,4.2923
mp-22114,ErSiRh,0.038299999999999564
mp-756598,ErTa3O9,3.2665999999999995
mp-1213131,ErTa5Ag2O15,2.5844000000000005
mp-773103,ErTa7O19,3.1747000000000005
mp-3444,ErTaO4,4.0828000000000015
mp-1212634,ErTeAs,0.4422000000000006
mp-1212930,ErTiClO3,3.1765
mp-1213125,ErTl(MoO4)2,3.2538
mp-1105213,ErTl(PSe3)2,1.5160999999999998
mp-1213014,ErTl(WO4)2,3.0455
mp-1195632,ErTl2P2Se7,1.1107
mp-754823,ErTlO2,1.3714999999999995
mp-4123,ErTlS2,1.4109000000000005
mp-570117,ErTlSe2,2.1451
mp-1007907,ErTlTe2,1.5534999999999997
mp-19205,ErVO3,1.5712000000000002
mp-18960,ErVO4,2.9661
mp-1192576,ErWBrO4,2.7559
mp-983603,ErZnAsO,1.5736000000000003
mp-1225396,ErZnCuP2,0.0956999999999999
mp-690951,ErZr11Si11PO48,4.0268
mp-1213575,ErZr6(PO4)9,3.6818
mp-504740,Eu(Al4Fe)2,0.042599999999999305
mp-30022,Eu(AlCl4)2,1.5857
mp-1103889,Eu(AlS2)2,1.0648999999999995
mp-1103552,Eu(AlSe2)2,0.8985999999999996
mp-20976,Eu(BIr)2,0.012600000000000831
mp-20578,Eu(BIr)4,0.038299999999999564
mp-540879,Eu(BO2)2,0.4830999999999994
mp-510243,Eu(BS2)2,0.9983000000000004
mp-1192923,Eu(BiS2)2,0.0259999999999998
mp-505769,Eu(CuSb)2,0.0063000000000004155
mp-1193960,Eu(DyS2)2,0.0895999999999999
mp-541052,Eu(ErS2)2,0.29440000000000044
mp-1193984,Eu(ErSe2)2,0.11290000000000022
mp-1181942,Eu(GaS2)2,0.3843999999999994
mp-1201775,Eu(GaSe2)2,0.20869999999999989
mp-675143,Eu(GdS2)2,0.3659999999999997
mp-1193160,Eu(HoS2)2,0.0918000000000001
mp-21952,Eu(In4Rh)2,0.00649999999999995
mp-1104657,Eu(InSe2)2,0.011800000000000031
mp-34255,Eu(LuS2)2,0.4383999999999997
mp-1206394,Eu(MgAs)2,0.0041999999999999815
mp-21672,Eu(Ni5P3)2,0.008999999999998566
mp-21386,Eu(PIr)2,0.2748999999999997
mp-754760,Eu(ReO4)2,0.32089999999999985
mp-1194437,Eu(SbS2)2,0.041500000000000085
mp-1199825,Eu(SeO4)2,0.003499999999999948
mp-542964,Eu(TmSe2)2,0.3281999999999998
mp-38971,Eu(YS2)2,0.4527999999999999
mp-19808,Eu(ZnGe)2,0.015400000000000082
mp-1206253,Eu2(BiPd)3,0.06329999999999991
mp-542930,Eu2(Ga3Ir)3,0.030999999999999694
mp-1213420,Eu2(SbPd)3,0.0400999999999998
mp-540684,Eu2(WO4)3,0.0004999999999999449
mp-1212582,Eu2Al3O8,0.2930000000000001
mp-685394,Eu2Al42O65,1.1410999999999998
mp-1212596,Eu2B2O5,0.08030000000000026
mp-558834,Eu2B5BrO9,0.8801000000000005
mp-553918,Eu2B5ClO9,0.8729000000000005
mp-1077381,Eu2BBrN2,0.03010000000000002
mp-582618,Eu2C(NCl)2,0.9358999999999992
mp-1213059,Eu2Cu(GeO3)4,0.004499999999999949
mp-1205520,Eu2DyTaO6,0.5418000000000003
mp-1206839,Eu2ErTaO6,0.5088999999999997
mp-1077617,Eu2Fe2O5,0.004299999999999749
mp-1079126,Eu2FeH6,0.11010000000000007
mp-1206027,Eu2GdTaO6,0.5667999999999997
mp-1103850,Eu2GeS4,0.2894999999999994
mp-629088,Eu2GeSe4,0.16590000000000016
mp-1018691,Eu2H3Br,0.0248999999999997
mp-1018693,Eu2H3Cl,0.07819999999999983
mp-643930,Eu2H4Pd,0.3475999999999999
mp-634945,Eu2H6Ru,0.19199999999999973
mp-1181527,Eu2HoTaO6,0.3296999999999999
mp-1205856,Eu2LuTaO6,0.43759999999999977
mp-1181729,Eu2Mg3H10,0.5777000000000001
mp-644292,Eu2MgH6,0.24760000000000024
mp-982662,Eu2MgSi2O7,0.011800000000000031
mp-1205507,Eu2MgWO6,0.25900000000000034
mp-704384,Eu2Mo5O18,0.27280000000000004
mp-1096978,Eu2Sc2O5,0.2154999999999996
mp-555322,Eu2SiCl2O3,0.6426999999999996
mp-554546,Eu2SiO4,0.16519999999999954
mp-22504,Eu2SiS4,0.20889999999999986
mp-31293,Eu2Sn5Au2,0.008299999999999308
mp-1205947,Eu2TaAlO6,0.2359
mp-31247,Eu2Te4O11,0.0015000000000000568
mp-505801,Eu2Ti2O7,0.006799999999999695
mp-1213054,Eu2TlCl5,0.6176000000000004
mp-1205480,Eu2TmTaO6,0.4881000000000002
mp-1206828,Eu2YTaO6,0.5425000000000004
mp-1189098,Eu3(AlAs2)2,0.06149999999999967
mp-1205409,Eu3(AlP2)2,0.048299999999999337
mp-559134,Eu3(AsS4)2,0.15409999999999968
mp-505346,Eu3(BO3)2,0.3684000000000003
mp-1105637,Eu3(GaAs2)2,0.08829999999999982
mp-1189104,Eu3(GaP2)2,0.08619999999999982
mp-540915,Eu3BrO4,0.007199999999999873
mp-510674,Eu3NbO7,0.017900000000000027
mp-22365,Eu3RuO7,0.008099999999999774
mp-1213517,Eu3Si6N4O9,0.05360000000000032
mp-504621,Eu3Sn2S7,0.0141
mp-21406,Eu3TaO6,1.9472
mp-21787,Eu4Au2O9,0.0013999999999998456
mp-559031,Eu4Br6O,0.7505999999999999
mp-1204426,Eu4C2N4F5,2.2768
mp-28546,Eu4Cl6O,0.8845999999999998
mp-1191507,Eu4I6O,1.1161000000000003
mp-1202692,Eu5B3ClO9,0.2458
mp-1196201,Eu5B3O9F,0.1413000000000002
mp-1188517,Eu5Bi3,0.016599999999999948
mp-647532,Eu5P3ClO12,0.6263000000000005
mp-1212781,Eu5P3O12F,0.3929999999999998
mp-669318,Eu5Si(Cl3O2)2,0.6026999999999996
mp-697962,Eu6Mg7H26,0.6589
mp-578696,Eu6Mo10O39,0.7642
mp-1190780,Eu7(ClF6)2,0.4600999999999997
mp-684011,Eu8C4I9N7,0.6649000000000003
mp-1213000,EuAg(WO4)2,0.011399999999999856
mp-1212749,EuAl12O19,0.18259999999999896
mp-21407,EuAl9Co2,0.04239999999999977
mp-1202507,EuAlF5,0.7047999999999996
mp-19729,EuAsAu,0.048000000000000036
mp-20732,EuAsPt,0.011299999999999422
mp-21127,EuB2Rh3,0.012900000000000134
mp-8109,EuB4O7,2.036500000000001
mp-22030,EuBO3,0.00219999999999998
mp-20040,EuBPd3,0.16059999999999966
mp-669573,EuBi2IO4,0.3699000000000003
mp-23311,EuBr2,1.0457999999999998
mp-581000,EuC10,0.2464000000000004
mp-554518,EuCO3,0.32450000000000045
mp-11084,EuCdAu,0.035699999999999836
mp-11090,EuCdPd,0.021500000000000075
mp-1183892,EuCl2,1.1102
mp-556382,EuClF,0.8959000000000001
mp-631040,EuCrO4,0.03509999999999991
mp-582495,EuCu(MoO4)2,0.07569999999999999
mp-2066,EuCu5,0.03960000000000008
mp-22277,EuCuAs,0.0829999999999993
mp-21373,EuCuP,0.01949999999999985
mp-21354,EuCuSF,0.4906999999999994
mp-13045,EuCuSn2,0.01949999999999985
mp-13339,EuCuTeF,0.6179000000000006
mp-1212735,EuDy2O4,0.14139999999999994
mp-542765,EuDyCuS3,0.06210000000000005
mp-1212745,EuEr2O4,0.13809999999999967
mp-22545,EuGa3Co2,0.0032000000000005357
mp-20615,EuGePd,0.012700000000000156
mp-19798,EuGePt,0.06050000000000023
mp-581575,EuGeS3,0.19559999999999975
mp-774926,EuH4S2NO8,0.0007000000000000339
mp-1096948,EuH6CI3N,1.4247999999999998
mp-1070860,EuHCl,0.30799999999999983
mp-753781,EuHfO3,0.4795999999999996
mp-1190059,EuHfS3,0.015200000000000102
mp-1213002,EuHo2O4,0.13680000000000006
mp-1102093,EuI2,1.1898999999999995
mp-31361,EuIBr,0.973
mp-1212725,EuICl,0.9291
mp-1095411,EuIn2(GeIr)4,0.16249999999999964
mp-21258,EuIn2Pd,0.007000000000000561
mp-21487,EuIn2Rh,0.000600000000000378
mp-22008,EuIn4Pd,0.007500000000000284
mp-19901,EuInAu,0.02080000000000037
mp-22322,EuInPd,0.028200000000000006
mp-21051,EuInPt,0.02510000000000012
mp-995,EuIr2,0.012000000000000456
mp-984697,EuLu2O4,0.1374000000000004
mp-1212752,EuLuCuS3,0.20120000000000005
mp-1185299,EuMg149,0.02300000000000013
mp-13223,EuMg2Cu9,0.0060999999999999934
mp-1019726,EuMg3SiN4,0.15890000000000004
mp-9539,EuMgF4,0.28580000000000005
mp-643756,EuMgH4,0.17059999999999986
mp-1095254,EuMoO4,0.021300000000000097
mp-686947,EuMoO4F,0.06409999999999992
mp-1204428,EuN3O14,0.3042
mp-21593,EuNb8O14,0.013200000000000323
mp-22338,EuOF,0.0040999999999999925
mp-566534,EuP5O14,0.08740000000000014
mp-1195922,EuP7,0.3157000000000005
mp-22783,EuPAu,0.017900000000000027
mp-20706,EuPPd,0.006000000000000227
mp-20217,EuPS3,0.7445000000000004
mp-20742,EuPSe3,0.3691
mp-676409,EuPaO4,0.0669000000000004
mp-1854,EuPd2,0.012800000000000368
mp-22797,EuPt2,0.006999999999999672
mp-21076,EuRh3C,0.008300000000000196
mp-616175,EuSO4,1.2805
mp-22475,EuSbAu,0.049000000000000384
mp-20923,EuSbPt,0.032999999999999474
mp-755177,EuSeO3,0.010200000000000207
mp-560341,EuSi2(NO)2,0.3055999999999992
mp-542709,EuSi6,0.011400000000000077
mp-22742,EuSn2Ir,0.009699999999999598
mp-21580,EuSnF7,0.010199999999999987
mp-19794,EuSnP,0.033199999999999896
mp-505434,EuTa2O6,0.01639999999999997
mp-1225161,EuTe2Pb,0.16609999999999925
mp-505238,EuTiAgO4,0.0242
mp-30630,EuTl2,0.05529999999999991
mp-3891,EuTl2Pd,0.006000000000000227
mp-1212784,EuTm2O4,0.13809999999999967
mp-12728,EuTmCuS3,0.2505999999999995
mp-754557,EuY2O4,0.26319999999999943
mp-22517,EuYSi4N7,0.5528999999999993
mp-532491,EuZr3F15,3.9530000000000003
mp-755810,EuZr4O9,0.2786
mp-1212698,EuZrF6,0.4773999999999998
mp-1178354,EuZrO3,0.4624999999999994
mp-769862,Fe(AsO2)2,2.4168000000000003
mp-566036,Fe(BO2)2,4.0104
mp-765035,Fe(Bi5O8)5,0.7234999999999996
mp-617170,Fe(CO)5,3.4908
mp-1213228,Fe(ClO2)2,2.1692
mp-767034,Fe(CoO2)2,0.27059999999999995
mp-626680,Fe(HO)2,2.3366
mp-24993,Fe(IO3)3,2.4612000000000003
mp-1181634,Fe(MoO5)2,0.8187
mp-1095055,Fe(NF2)3,1.5557
mp-1213097,Fe(O2F)2,0.25560000000000005
mp-649683,Fe(PO3)2,3.9803
mp-557544,Fe(PO3)3,2.7934
mp-31874,Fe(PO3)4,0.3441
mp-540145,Fe(PO3)5,0.5812
mp-510588,Fe(SbO2)2,0.5327000000000002
mp-1201086,Fe(SeO3)2,0.436
mp-1181664,Fe(SeO3)3,0.672
mp-1043700,Fe(Si2O5)2,1.0807
mp-1203128,Fe(SiO3)2,0.6940000000000001
mp-9198,Fe(SiP)4,1.0233
mp-1197157,Fe(TeO3)2,0.2488000000000001
mp-1197576,Fe(W3Cl7)2,0.7376
mp-1192985,Fe(WCl5)2,0.08050000000000003
mp-705555,Fe10O11,1.4182999999999997
mp-775287,Fe10OF19,1.4960999999999998
mp-36806,Fe11(NiO3)8,0.3506999999999998
mp-705417,Fe11O12,1.3876
mp-1225211,Fe11Si4(H4O9)3,0.9737999999999998
mp-566646,Fe12PbO19,1.1258999999999997
mp-1178589,Fe13(NiO10)2,0.009799999999999365
mp-863767,Fe13(SnO10)2,0.9284999999999995
mp-767312,Fe13O15,1.2639
mvc-9418,Fe13Si2(SbO14)2,0.5884999999999998
mp-1226029,Fe14Cu7(PO4)18,0.17849999999999966
mp-764417,Fe14O15,1.0187
mp-650055,Fe15(Ge2O9)4,0.006999999999999672
mp-705551,Fe15O16,1.1413000000000002
mp-705424,Fe17O18,1.5382999999999996
mp-775380,Fe19(SiO4)12,1.2866
mp-762884,Fe19Co5O32,0.041100000000000136
mp-643081,Fe2(CO)9,2.4707
mp-763595,Fe2(CO3)3,1.8141
mp-705435,Fe2(MoO4)3,2.4304
mp-1172918,Fe2(PO3)5,1.1821
mp-559859,Fe2(SO4)3,2.2848
mp-1213661,Fe2(SO7)3,0.038899999999999935
mp-567065,Fe2(Se2O5)3,2.6028
mp-541297,Fe2(SeO4)3,2.2467
mp-606023,Fe2(TeO3)3,1.8539000000000003
mp-1042761,Fe2(TeO4)3,1.5471
mp-1213596,Fe2(WO4)3,2.6699
mp-705638,Fe21HO32,1.3254
mp-698680,Fe21Ni9O40,1.3781000000000003
mp-706875,Fe21O23,1.3487
mp-705553,Fe23O25,1.2771000000000003
mp-776135,Fe23O32,0.6341000000000006
mp-1178338,Fe25Si11O48,0.02289999999999992
mp-565482,Fe2Ag(MoO4)3,1.1415000000000002
mp-1212702,Fe2As2H2PbO10,2.0125
mp-1224755,Fe2AsO4F,1.7672
mp-1197728,Fe2B(PO4)3,2.4696
mp-566717,Fe2BO4,1.1187999999999998
mp-763661,Fe2C2O7,2.1609
mp-1181787,Fe2C4Cl2O9,0.21350000000000025
mp-647840,Fe2C8SO10,2.4444
mp-704688,Fe2C9(O4F)2,2.329
mp-629080,Fe2C9O7F4,2.4193
mp-1199200,Fe2CO5,1.0925000000000002
mp-1238907,Fe2Cl6O5,0.07569999999999988
mp-1197332,Fe2Co(AsO7)2,0.019500000000000003
mp-761762,Fe2Co(PO4)3,0.051899999999999835
mp-1212758,Fe2Co3H4(Se3O10)2,1.7623000000000002
mp-1178389,Fe2Co3Sb3O16,0.20869999999999989
mp-652793,Fe2Co4Ge2(CO)21,1.9891
mp-542798,Fe2CoAs2(H5O7)2,1.6487
mp-1103499,Fe2CoO4,1.5457
mp-510036,Fe2Cu(P2O7)2,0.7737
mp-647427,Fe2Cu2Ge4O13,0.2979000000000003
mp-565549,Fe2Cu3(SeO3)6,0.3536999999999999
mp-764827,Fe2CuAs2(HO5)2,0.7616999999999998
mp-644277,Fe2CuH4(OF4)2,0.9775
mp-1224742,Fe2CuRh3S8,0.13729999999999976
mp-24969,Fe2GeO4,1.4076999999999995
mp-21086,Fe2GeS4,0.4043999999999999
mp-1212917,Fe2H10Cl6O5,2.3945
mp-1196332,Fe2H10S2O11,4.2883
mp-766654,Fe2H11(SeO5)3,0.12369999999999998
mp-744001,Fe2H13C6NCl2O11,2.3056
mp-1194812,Fe2H14C8NO12,1.6187999999999998
mp-1213486,Fe2H2Se3O10,2.2951
mp-1212847,Fe2H3F2,1.4879999999999998
mp-762039,Fe2H4O2F5,1.4287
mp-1199115,Fe2H6(SO5)3,2.141
mp-1178328,Fe2H6(SeO4)3,2.3272000000000004
mp-770601,Fe2HgO4,1.1461
mp-504974,Fe2Mo3O8,0.2629000000000001
mp-1181867,Fe2Mo4O7,0.07379999999999942
mp-624052,Fe2MoC10(SeO5)2,1.9793
mp-33537,Fe2MoO4,1.1608999999999998
mp-28104,Fe2MoP12,0.004599999999999938
mp-1198504,Fe2NF6,1.8643
mp-19609,Fe2Ni(PO4)2,3.4083
mp-1212753,Fe2Ni3H4(Se3O10)2,2.061
mp-771051,Fe2Ni3P6WO24,0.9691
mp-35596,Fe2NiO4,1.3615999999999997
mp-1190371,Fe2O2F5,0.789
mp-1178466,Fe2OF2,2.0335
mp-1178468,Fe2OF3,0.6097000000000001
mp-683792,Fe2Os(CO)12,1.6794
mp-745200,Fe2P2H4NO8,2.7250000000000005
mp-541954,Fe2P2H4O9,3.6173
mp-1238703,Fe2P2H6C2O13,2.6645
mp-541027,Fe2P2H9NO11,2.5584
mp-1201744,Fe2P2NO11,0.013799999999999979
mp-510367,Fe2P2O7,3.6939
mp-25692,Fe2P3(HO3)3,2.5402
mp-1202233,Fe2P3(O3F)3,2.4793
mp-705041,Fe2P3C8N3(ClO2)4,2.365
mp-540498,Fe2P3O10,0.3746
mp-697819,Fe2P3O13,0.018500000000000072
mp-704946,Fe2P4Pb3O16,2.4153
mp-1225206,Fe2P4Pb3O17,0.14110000000000025
mp-24976,Fe2P4PbO14,2.5682
mp-1213220,Fe2PCO7,1.8010000000000002
mp-565945,Fe2PClO4,3.7912
mp-542770,Fe2PH2CO7,2.4337
mp-1202411,Fe2PHO3F2,4.1282000000000005
mp-540870,Fe2PO4F,3.4341000000000004
mp-565515,Fe2PO5,0.9687
mp-1224708,Fe2Pb(SeO3)4,2.2141
mp-557298,Fe2Pb3F12,3.1375
mp-1224835,Fe2Pb3WO9,1.5907
mp-1200296,Fe2S2O13,0.0400999999999998
mp-1204346,Fe2S2O17,0.385
mp-1213033,Fe2S3(NO6)2,1.8157
mp-1201595,Fe2S3O23,0.05370000000000008
mp-849513,Fe2Sb(PO4)3,2.229
mp-561440,Fe2Se2O7,2.062
mp-510587,Fe2SiO4,2.6766
mp-775649,Fe2Sn(PO4)3,0.059400000000000126
mp-1225390,Fe2Te2(PbO4)3,1.5309
mp-651724,Fe2Te2Ru2(CO)11,1.6949
mp-566216,Fe2Te2W(CO)10,1.9275
mp-1213361,Fe2Te4BrClO10,1.9088000000000005
mp-743878,Fe2Te4H3ClO12,2.0646
mp-1212800,Fe2Te4HClO12,0.16669999999999965
mp-510266,Fe2Te4O11,2.2242999999999995
mp-649165,Fe2TeO5,1.8885
mp-24967,Fe2TeO6,1.2382
mp-624009,Fe2TeWC10SeO10,1.912
mp-504619,Fe2W2C,0.010800000000000587
mp-624463,Fe2WC10(SeO5)2,1.955
mp-25749,Fe2WO6,1.8976
mp-1190714,Fe3(AsO8)2,0.06589999999999996
mp-651997,Fe3(GeO4)2,1.5581999999999998
mp-767081,Fe3(OF)2,1.4501000000000002
mp-779933,Fe3(OF2)2,1.2227
mp-778552,Fe3(OF3)2,0.1911
mp-1104355,Fe3(OF4)2,0.0262
mp-565653,Fe3(P2O7)2,1.8996
mp-31877,Fe3(P3O10)2,0.09330000000000004
mp-636647,Fe3(PO4)2,3.2492
mp-1194229,Fe3(PO5)2,0.17300000000000004
mp-1225204,Fe3(Se2S)2,0.4754000000000005
mp-31859,Fe3(SiO4)2,1.7005000000000003
mp-566653,Fe3(TeO3)4,1.7774
mp-1178315,Fe31Si5O48,0.959
mp-863766,Fe32O35,0.6813000000000002
mp-694910,Fe35O36,1.1300000000000003
mp-762943,Fe35SiO48,0.5619000000000001
mp-705753,Fe38O39,1.3910999999999998
mp-1178317,Fe39Si3O56,0.7005999999999997
mp-1204059,Fe3Ag7(P2O7)4,1.3194000000000004
mp-1181439,Fe3B7BrO13,3.8237
mp-566887,Fe3B7ClO13,2.8149000000000006
mp-1194881,Fe3B7IO13,3.5612000000000004
mp-510551,Fe3BO5,1.0194999999999994
mp-25746,Fe3BO6,1.7876999999999996
mp-648633,Fe3C10SO10,2.3906
mp-704545,Fe3C10SeO10,2.3216
mp-1228683,Fe3C7O19,0.3159
mp-648167,Fe3C8(Br2N)8,1.2489
mp-654299,Fe3C9(SO5)2,2.1731
mp-652326,Fe3C9S2O9,1.9239
mp-629560,Fe3C9Se2O9,1.811
mp-1201021,Fe3C9SeSO9,0.9604
mp-1181596,Fe3Co(BiO3)4,0.7777000000000003
mp-775516,Fe3Co(PO4)4,0.7880999999999998
mp-762161,Fe3Co2Cu(PO4)6,0.18619999999999992
mp-769471,Fe3Co2P6WO24,0.0064000000000001825
mp-763277,Fe3Co2Sb(PO4)6,0.0034000000000000696
mp-769678,Fe3Co5O16,0.13949999999999996
mp-1225696,Fe3CoBi4(AsO6)4,0.048599999999999983
mp-1178300,Fe3CoSb2(PO4)6,1.5673
mp-20711,Fe3Ge,0.0026000000000001573
mp-40778,Fe3H10S2NO14,1.8935
mp-1202481,Fe3H28(S2O15)2,0.8656
mp-743794,Fe3H4(OF4)2,0.9575
mp-743859,Fe3H4(S2O9)2,1.1843
mp-634187,Fe3H6C6(N3Cl4)2,1.3614
mp-1224975,Fe3H9S2O15,1.9477
mp-683831,Fe3MoC11SeS3O11,2.1224
mp-1212814,Fe3NF9,1.6585
mp-851295,Fe3Ni2P6WO24,2.5304
mp-776916,Fe3Ni2Sb(PO4)6,2.3559
mp-776920,Fe3Ni2Te(PO4)6,0.07499999999999972
mp-776887,Fe3NiSn2(PO4)6,0.0585
mp-779987,Fe3OF5,1.5144
mp-1178324,Fe3OF7,2.5358
mp-1194393,Fe3OF9,0.8252999999999999
mp-745134,Fe3P2(H2O3)4,3.7133
mp-742859,Fe3P2(HO)16,3.1305000000000005
mp-1212790,Fe3P2(HO)8,2.6928
mp-744206,Fe3P2H3O11,2.0659
mp-1213504,Fe3P2H3O8,0.5302000000000002
mp-1182551,Fe3P2H6O11,3.4540000000000006
mp-1204155,Fe3P2O9,0.051500000000000316
mp-1201707,Fe3P3H12C2N2O13F2,0.041100000000000025
mp-540050,Fe3P3O11,1.5595
mvc-11637,Fe3P3O13,0.0492
mp-1198984,Fe3P3PbO13,1.995
mp-1203127,Fe3P4(H3O5)4,2.2112000000000003
mp-1204465,Fe3P4PbO14,3.9184
mp-775004,Fe3P6WO24,0.0837
mp-743549,Fe3P8H26NO36,1.3934000000000002
mp-735523,Fe3PH6PbSO14,1.3477
mp-18775,Fe3PO7,1.9695
mp-704755,Fe3PWC15BrO15,0.2532
mp-1212776,Fe3Pb4BrO8,1.2027