task_id,composition,band_gap
mp-667498,Ba8CaY2U4O24,1.9303
mp-561045,Ba8Ce3(SbO6)4,1.8772000000000009
mp-695164,Ba8Ce7YHO24,2.0843
mp-704890,Ba8Co7O19,0.4315000000000002
mp-1228663,Ba8Eu(BN2)6,0.3463000000000003
mp-1199827,Ba8Ge43,0.02079999999999993
mp-758269,Ba8In6O17,0.7284999999999999
mp-757574,Ba8In8O19,1.3122000000000005
mp-1228109,Ba8Li13GaSb12,0.013399999999999856
mp-1228330,Ba8Mn6Co2ClO22,0.37970000000000015
mp-694888,Ba8Mn8O21,0.2885999999999997
mp-764369,Ba8Mn8O23,1.037
mp-531036,Ba8Nb7S24,0.0964999999999998
mp-28685,Ba8Ni6N7,0.00019999999999953388
mp-34034,Ba8P5Br,1.1637
mp-654327,Ba8Re2(WO8)3,0.026799999999999716
mp-1104424,Ba8Sb4H2O,0.7384
mp-561455,Ba8Sb6S17,1.3935
mp-1228480,Ba8Si43Ni3,0.02890000000000015
mp-1200444,Ba8Si6Sn,0.2660999999999998
mp-1228031,Ba8Sr(BN2)6,2.0378000000000003
mp-1228515,Ba8Sr3Ca(WO6)4,3.3418
mp-1228251,Ba8SrCa3(WO6)4,3.3156
mp-1228423,Ba8Ti3Co(SiO4)8,1.3895999999999995
mp-1228557,Ba8Ti3Nb4O24,1.9606
mp-1228285,Ba8Y4Cu(WO8)3,0.06179999999999985
mp-667372,Ba8Zr3(SbO6)4,2.9436
mp-28788,Ba9(AuO6)2,1.8827
mp-675219,Ba9(LaS6)2,2.2418
mp-541765,Ba9(NbN6)2,1.2611
mp-673874,Ba9(NdS6)2,2.1401000000000003
mp-554262,Ba9(RhO3)8,0.011099999999999888
mp-667314,Ba9(TaN6)2,1.2429
mp-1228537,Ba9Ca3La4(Fe4O15)2,2.3912
mp-555262,Ba9Fe4S15,0.04609999999999959
mp-1204134,Ba9In4(SF)10,2.2503
mp-695214,Ba9La3Mg5Nb7O36,2.3787
mp-851112,Ba9La5Br33,2.7671
mp-781880,Ba9La5Cl33,3.4450000000000003
mp-851110,Ba9La5I33,2.0466
mp-559419,Ba9LiSi10C(ClO4)7,4.6715
mp-560022,Ba9Nb2CN10O,1.7837999999999998
mp-1205126,Ba9Pr6Br34,0.012000000000000456
mp-558428,Ba9Sc2(SiO4)6,4.3057
mp-567646,Ba9Sm6Cl34,0.014999999999999682
mp-1195654,Ba9U4(Ag5S12)2,0.24159999999999915
mp-1019533,Ba9Y2(SiO4)6,4.5047
mp-10070,BaAg(PO3)3,3.1971
mp-557862,BaAg2(HgO2)2,1.3289
mp-7394,BaAg2GeS4,0.5888
mp-569790,BaAg2GeSe4,0.02659999999999973
mp-555166,BaAg2SnS4,0.3603000000000001
mp-569114,BaAg2SnSe4,0.060200000000000024
mp-29682,BaAg8S5,0.4565999999999999
mp-1205318,BaAgBi,0.0040000000000000036
mp-9899,BaAgP,0.1248999999999998
mp-1086652,BaAgSF,1.4272999999999998
mp-1205316,BaAgSb,0.125
mp-1079647,BaAgSeF,1.2644000000000002
mp-16742,BaAgTeF,1.5094
mp-556178,BaAl2(GeO4)2,3.9360000000000004
mp-6091,BaAl2(SiO4)2,4.819699999999999
mp-1204499,BaAl2(SiO5)2,1.3059
mp-9844,BaAl2B2O7,4.6477
mp-1195111,BaAl2C2O11,0.0009000000000000119
mp-1238408,BaAl2H10C2O13,0.4171
mp-4202,BaAl2O4,4.0969
mp-1196014,BaAl2O6,0.6852
mp-1190674,BaAl2O8,0.4193
mp-12885,BaAl2Sb2O7,3.4109000000000003
mp-1019531,BaAl2Si3(NO)4,3.5604
mp-1228625,BaAl2Si3O14,0.5433
mp-1214482,BaAl3(PO7)2,0.009199999999999986
mp-1196877,BaAl4(SbO6)2,3.2508
mp-1019534,BaAl4O7,3.6891
mp-8258,BaAl4S7,3.1571
mp-1195235,BaAlB4H3O10,5.4087000000000005
mp-558491,BaAlBO3F2,6.0642000000000005
mp-1214458,BaAlCdF7,4.9107
mp-1048382,BaAlCo4O7,0.18699999999999986
mp-4376,BaAlF5,7.2832
mp-1048359,BaAlFe4O7,0.8155000000000001
mp-1227987,BaAlGaO4,3.3502
mp-1207108,BaAlGeH,0.8844999999999996
mp-644097,BaAlH5,2.7537
mp-1048397,BaAlNi4O7,0.415
mp-1104383,BaAlO5,1.0314
mp-1214467,BaAlPO5F,0.333
mp-1019537,BaAlSi4N5O3,3.2181
mp-1227994,BaAlSi5N7O2,3.9027
mp-571093,BaAlSiH,0.7094
mp-1048345,BaAlV4O7,0.39090000000000025
mp-31243,BaAs2,0.41490000000000027
mp-1214710,BaAs2F12,4.5536
mp-1214472,BaAs2Xe5F22,2.4732000000000003
mp-1077361,BaAsAu,0.3460000000000001
mp-23806,BaAsH3O5,3.9765
mp-23810,BaAsHO4,3.7739999999999996
mp-1190864,BaAu2(SO4)4,1.7001
mp-1100397,BaAuCl,2.1963
mp-997009,BaAuO2,1.1728
mp-720736,BaB2(HO)8,0.2518
mp-558430,BaB2F8,8.043
mp-1182666,BaB2H10O9,0.9708
mp-757727,BaB2H2O5,4.7844
mp-1196854,BaB2O9,0.1027
mp-1019539,BaB2S3O13,6.181
mp-1195214,BaB4(SbO6)2,3.1817
mp-27692,BaB4O7,5.1593
mp-27794,BaB8O13,5.5451
mp-1198994,BaBAsF10,4.9923
mp-9784,BaBAsO5,3.4465000000000003
mp-1103527,BaBClF4,5.9708000000000006
mp-13680,BaBOF3,5.8868
mp-1199844,BaBPF10,7.269
mp-6040,BaBPO5,5.495
mp-866301,BaBSbS4,2.3423000000000003
mp-555070,BaBe2(BO3)2,5.5996000000000015
mp-1227988,BaBe2(PO4)2,5.1322
mp-12797,BaBe2Si2O7,5.5679
mp-12431,BaBeF4,7.5543
mp-754604,BaBePO4F,6.0427
mp-550751,BaBeSiO4,4.5484
mp-582874,BaBi12Mo4WO34,3.2819
mp-1215003,BaBi12Mo5O34,3.3081
mp-560550,BaBi2(B2O5)2,3.3498
mp-642792,BaBi2(MoO4)4,3.0264000000000006
mp-675450,BaBi4O7,2.3709
mp-554084,BaBi6(PO5)4,3.4275999999999995
mp-559186,BaBiBO4,3.5528000000000004
mp-861618,BaBiBS4,1.9279
mp-1206552,BaBiBrO2,3.114
mp-552806,BaBiClO2,3.1774
mp-1041349,BaBiF7,0.366
mp-551243,BaBiIO2,2.947
mp-1228172,BaBiNO5,2.2151
mp-27365,BaBiSe3,0.7321
mp-27456,BaBr2,4.3731
mp-1188828,BaBr2O,2.0392
mp-1193601,BaBr2O11,1.8398
mp-1188738,BaBr2O7,0.7376
mp-1012551,BaBrCl,4.4843
mp-23070,BaBrF,4.8829
mp-18027,BaC10,0.18229999999999968
mp-10293,BaC2,2.1132
mp-1195678,BaC2(NO)2,4.5791
mp-10928,BaC2(SN)2,3.9015
mp-28979,BaC20,0.14360000000000014
mp-638469,BaC2S2(OF)6,6.1553
mp-1194836,BaC4(O2F3)2,4.7519
mp-1029375,BaCN2,2.9398
mp-5504,BaCO3,4.3837
mp-556856,BaCSNCl,4.1176
mp-1047131,BaCa(BiO2)4,0.9921999999999996
mp-6568,BaCa(CO3)2,4.687
mvc-14421,BaCa(CoN2)2,0.2931
mp-1044463,BaCa(CoO2)4,0.04380000000000006
mp-18950,BaCa(FeO2)4,1.7786000000000002
mp-561446,BaCa(GaO2)4,3.0642
mp-1044567,BaCa(NiO2)4,0.4914999999999998
mp-556122,BaCa(PO3)4,5.5237
mp-1047093,BaCa(SbO2)4,0.14259999999999984
mvc-11312,BaCa2(CoN2)2,0.6818000000000001
mp-6404,BaCa2(PN2)6,4.0726
mp-18216,BaCa2(SiO3)3,4.5745000000000005
mp-560303,BaCa2C2(O3F)2,4.7298
mp-757074,BaCa2I6,3.862400000000001
mp-1103554,BaCa2Mg(SiO4)2,4.972
mp-1214597,BaCa2WN4,2.5789999999999997
mvc-14842,BaCa3(CuN2)2,0.012700000000000156
mp-1019541,BaCa3O4,2.3279
mp-1229190,BaCa3Zr16(PO4)24,4.1721
mp-606338,BaCa4(CoN2)2,0.19519999999999985
mp-569603,BaCa4(CuN2)2,0.2397
mp-1041316,BaCaAgF7,0.5108999999999999
mp-18065,BaCaAlF7,7.002999999999999
mp-1019542,BaCaB2O5,4.4673
mp-694911,BaCaBO3F,3.8701
mp-1041345,BaCaBiF7,4.8837
mp-1093940,BaCaCd2,0.033300000000000114
mp-604812,BaCaCo4O7,0.843
mp-1047947,BaCaCoF7,2.1235
mp-560577,BaCaCrF7,4.0221
mp-1041323,BaCaCuF7,0.8291000000000001
mp-1228037,BaCaDy2F10,2.8563
mp-1228404,BaCaFe2Co2O7,0.8727
mp-1047946,BaCaFeF7,3.8826
mp-8416,BaCaGaF7,5.8537
mp-16252,BaCaGe,0.1959
mp-1097359,BaCaHg2,0.04259999999999997
mp-753809,BaCaI4,3.797400000000001
mp-39886,BaCaLaBiO6,2.164
mp-1228137,BaCaLu2F10,7.0209
mp-1036305,BaCaMg14O16,1.4611
mp-1038013,BaCaMg30O32,3.0078
mp-1047948,BaCaMnF7,1.7916
mp-1047929,BaCaMoF7,4.6469
mp-1047971,BaCaNiF7,1.9832
mp-756930,BaCaO2,2.8163000000000005
mp-733968,BaCaP2(HO4)2,5.327000000000001
mp-1019543,BaCaP2O7,5.3187
mp-1102214,BaCaPb,0.2756000000000003
mp-1041343,BaCaSbF7,4.3889999999999985
mp-16253,BaCaSi,0.17959999999999976
mp-561050,BaCaSiO4,4.3673
mp-11265,BaCaSn,0.24659999999999996
mp-1041344,BaCaTiF7,0.2462
mp-1095980,BaCaTl2,0.3883000000000001
mp-19484,BaCaV2O7,3.2318
mp-1044444,BaCaV4O8,0.9838
mp-1047952,BaCaVF7,2.3948
mp-565627,BaCaVP2O9,2.5382
mp-1047958,BaCaWF7,3.9033
mp-1228692,BaCaZr8(PO4)12,4.1871
mp-1182162,BaCd(ClO)4,1.2046
mp-540736,BaCd(PO3)4,4.396400000000001
mp-1190335,BaCdAs2O7,2.5528
mp-1095151,BaCdAsF,0.9570000000000004
mp-1214477,BaCdFeF7,3.7621
mp-621924,BaCdGaF7,4.4668
mp-13831,BaCdGeS4,2.7009
mp-1095738,BaCdHg2,0.26170000000000004
mp-7899,BaCdO2,0.9776000000000002
mp-6695,BaCdP2O7,3.5826
mp-1079603,BaCdPF,1.1477
mp-8885,BaCdS2,1.7352999999999998
mp-30040,BaCdSb2,0.2497999999999996
mp-1078693,BaCdSbF,0.2845999999999997
mp-559451,BaCeC2O6F,0.09210000000000028
mp-4887,BaCeN2,0.6481000000000003
mp-3187,BaCeO3,2.2207000000000003
mp-568662,BaCl2,5.4309
mp-1189047,BaCl2O,1.0698
mp-1194474,BaCl2O11,0.8285
mp-23432,BaClF,5.4426
mp-1214435,BaClO,0.4771000000000001
mp-1182237,BaClO3,0.16530000000000022
mp-1201865,BaCo(SeO3)2,2.8118
mp-19143,BaCo2(AsO4)2,2.1212000000000004
mp-1194023,BaCo2(PO4)2,2.9570000000000003
mp-644003,BaCo2P2H2O9,2.8682
mp-19203,BaCo2Si2O7,2.6632
mp-1228162,BaCo2Sn4O11,0.8888000000000007
mvc-11646,BaCo4O7,9.9999999999989e-05
mp-1191386,BaCoAs2O7,2.5534
mp-25676,BaCoBP2HO9,3.0073
mp-557291,BaCoF4,2.9911
mp-505765,BaCoN,0.026199999999999782
mp-19086,BaCoO2,0.3967000000000001
mp-19278,BaCoP2O7,3.0692
mp-1078227,BaCoSO,1.1487000000000005
mp-1196884,BaCoSiO4,2.8851
mp-19518,BaCr(Si2O5)2,3.2289
mp-561864,BaCr2O4,2.5408000000000004
mp-1197259,BaCr2O7,2.6255
mp-1194334,BaCr2PO11,0.058400000000000014
mp-1048371,BaCr4O7,0.8137999999999999
mp-557882,BaCr4S7,0.11960000000000015
mp-1214499,BaCrCdF7,3.8829
mp-562066,BaCrF5,3.5888
mp-19662,BaCrO4,2.9572
mp-19110,BaCrP2O7,3.0648000000000004
mp-9639,BaCu(SeO3)2,0.3527
mp-6127,BaCu(Si2O5)2,0.8549000000000002
mp-565843,BaCu(SiO3)2,0.3643000000000001
mp-1147526,BaCu2(HgO2)2,0.9027999999999998
mp-654359,BaCu2(PO4)2,0.3490999999999997
mp-542101,BaCu2Ge2O7,0.02159999999999984
mp-17947,BaCu2GeS4,0.9665
mp-17252,BaCu2GeSe4,0.35939999999999994
mp-697156,BaCu2P2H2O9,0.008000000000000007
mp-17954,BaCu2SnS4,0.3868999999999998
mp-27424,BaCu4S3,0.03790000000000049
mp-556714,BaCu6(GeS4)2,0.7574999999999994
mp-1228010,BaCu6Te6S,0.2283999999999997
mp-1228039,BaCu6Te6Se,0.2363999999999997
mp-9898,BaCuAs,0.029300000000000107
mp-6571,BaCuAs2O7,0.4786000000000002
mp-551135,BaCuB2O5,0.4944
mp-31145,BaCuBi,0.016600000000000392
mp-556030,BaCuCO3F2,0.4352999999999998
mp-1215121,BaCuH12(C2O7)2,0.9555
mp-29199,BaCuN,0.0064000000000001825
mp-8851,BaCuP2O7,0.3489
mp-556604,BaCuPClO4,0.4492999999999998
mp-1080650,BaCuSF,1.6000999999999994
mp-9195,BaCuSeF,1.4265000000000003
mp-19364,BaDy2CoO5,1.8435999999999997
mp-562061,BaDy2MnO5,1.6967
mp-9740,BaDy2PdO5,1.983
mp-1195063,BaDy2Si3O10,4.8162
mp-6643,BaDy2ZnO5,3.0569
mp-18804,BaDyCo4O7,0.19060000000000032
mp-9503,BaDyCuTe3,0.5288000000000004
mp-24971,BaDyFe2O5,0.8047000000000004
mp-1192895,BaDyFe4O7,1.5932000000000004
mp-12803,BaEr2F8,7.215
mp-1195744,BaEr2Si3O10,4.8291
mp-6495,BaEr2ZnO5,3.3171
mp-1195598,BaEr4Si5O17,4.7998
mp-559025,BaErAgS3,0.993
mp-1102849,BaErAgSe3,1.4493
mp-1214427,BaErAl3SiN4O3,2.6129
mp-14969,BaErCuS3,1.1586999999999996
mp-1101781,BaErCuSe3,1.0391999999999997
mp-505054,BaEu2NiO5,0.002299999999999969
mp-510479,BaEu2ZnO5,0.029799999999999827
mp-1080821,BaF3,0.8251000000000002
mp-19165,BaFe(Si2O5)2,3.6492
mp-565581,BaFe12O19,1.2163
mp-1190858,BaFe2(P2O7)2,2.7077
mp-1103865,BaFe2(PO4)2,0.3376000000000001
mp-566125,BaFe2(SeO3)4,2.4708
mp-1214474,BaFe2F7,1.6137
mp-566925,BaFe2P2O7F2,3.9302
mp-1215009,BaFe2PbO5,1.3355
mp-1095213,BaFe2S2O,1.8979000000000004
mp-1214455,BaFe2Si2O7,2.7374
mp-1194498,BaFe3(PO4)3,1.3668
mp-1214792,BaFe3Si4SO11,1.1066000000000005
mp-1048391,BaFe4O7,1.6662
mp-1228094,BaFe4Sn2O11,1.6269000000000005
mp-1193185,BaFeBP2O9,2.6231
mp-1228033,BaFeCuF7,0.18499999999999994
mp-554451,BaFeF4,3.3521
mp-561191,BaFeF5,3.7032
mp-1227945,BaFeO2F,0.4259
mp-1196275,BaFeOF5,0.8692
mp-1214449,BaFeP(O2F)2,2.189
mp-1195793,BaFePHO5,3.6327
mp-850536,BaGa12O19,1.9291
mp-540585,BaGa2(GeO4)2,3.4836
mp-6759,BaGa2(SiO4)2,4.0084
mp-560870,BaGa2B2O7,3.9803
mp-769971,BaGa4O7,2.3813
mp-1194652,BaGaB4H3O10,4.9782
mp-10509,BaGaBO3F2,4.9647
mp-541629,BaGaF5,5.7568
mp-1018095,BaGaGeH,0.039800000000000064
mp-1103816,BaGaH5,3.2078
mp-1008506,BaGaSiH,0.4792000000000001
mp-1018094,BaGaSnH,0.0524
mp-505313,BaGd2CoO5,0.8241
mp-580562,BaGd2Mn2O7,0.6527999999999996
mp-19332,BaGd2NiO5,1.9872
mp-17143,BaGd2O4,2.7986000000000004
mp-505438,BaGd2PdO5,0.03599999999999959
mp-19750,BaGd2PtO5,2.1918
mp-1197749,BaGd2Si3O10,3.3414
mp-15904,BaGd2ZnO5,2.8138
mp-19942,BaGdAuSe3,0.9171
mp-29538,BaGdCl5,1.944
mp-1102297,BaGdCuS3,1.1892999999999998
mp-20157,BaGdCuSe3,1.0212
mp-1095273,BaGdCuTe3,0.5385
mp-1078934,BaGdFe2O5,0.4413
mp-1193020,BaGdFe4O7,1.5023
mp-1095485,BaGe(PO4)2,4.167000000000002
mp-1019548,BaGe(S2O7)3,3.945
mp-558184,BaGe2O5,2.7735000000000003
mp-28710,BaGe2S5,2.1837
mp-1182246,BaGe3O8,0.09959999999999992
mp-1194551,BaGe4(RhS3)2,1.4980999999999995
mp-3848,BaGe4O9,3.0551
mp-1029679,BaGe7N10,2.1552
mp-14006,BaGeF6,5.7917000000000005
mp-1029743,BaGeN2,2.4829
mp-13863,BaGeO3,3.5403
mp-1190729,BaGeO4,0.1148
mp-1192417,BaGePbO4,3.4486
mp-1195469,BaGeS3,2.3949000000000003
mp-1214576,BaH(NO2)2,1.6532
mp-556567,BaH16C4S4(NO5)2,5.4192
mp-23715,BaH2,2.8699
mp-690851,BaH2(CO2)2,4.6763
mp-1214914,BaH2(CO2)4,2.1443000000000003
mp-1228613,BaH2(CO3)2,0.4765000000000002
mp-1214729,BaH2(S2O3)2,2.8993
mp-703568,BaH2(SO4)2,5.5547
mp-644226,BaH2C2O5,3.1714
mp-554761,BaH2C4S4N2(O3F4)3,6.1485
mp-643643,BaH2CSNClO,4.8714
mp-642661,BaH2Cl2O,5.05
mp-24421,BaH2Cl2O7,5.1664
mp-24510,BaH2I2O7,3.6479
mp-541221,BaH2N2O5,2.3958
mp-1214636,BaH2S5O6,3.006
mp-1214799,BaH2Se(S2O3)2,2.4221
mp-23755,BaH3C3O7,2.8525
mp-696806,BaH4(BrO)2,4.3426
mp-698325,BaH4(CO2)3,4.6433
mp-555646,BaH4(CO3)2,3.4081
mp-690703,BaH4(ClO)2,5.2435
mp-24090,BaH4(IO)2,3.6575000000000006
mp-23904,BaH4O3,4.2591
mp-642844,BaH5BrO3,4.7616
mp-642834,BaH5ClO3,4.9758
mp-1202302,BaH6(C2O5)2,3.159
mp-1214846,BaH6C2N4O5,4.2969
mp-707729,BaH6C2S2N2O3,4.1094
mp-1202239,BaH6C2SNO5,3.6067
mp-723120,BaH6C4O7,2.6483
mp-23944,BaH6Cl2O11,5.2970000000000015
mp-557810,BaH6F8,7.5667
mp-695996,BaH8C6(N3O4)2,4.5878
mp-28587,BaH8O5,4.8099
mp-720842,BaH8PtC4(NO)4,1.6378
mp-766855,BaH9IO5,3.5215
mp-24424,BaHBr,3.2114
mp-643036,BaHBrO,4.2077
mp-23861,BaHCl,3.4827000000000004
mp-24565,BaHClO,5.1256
mp-23862,BaHI,2.8161
mp-643384,BaHIO,3.9362
mp-1214550,BaHS2O3,2.0686
mp-545548,BaHf(PO4)2,4.9273
mp-1194160,BaHf(SiO3)3,4.6845
mp-1214420,BaHfF6,7.1463
mp-1038615,BaHfMg30O32,0.2774000000000001
mp-10322,BaHfN2,1.2537000000000005
mp-998552,BaHfO3,3.5309
mp-1105549,BaHfS3,1.2421000000000002
mp-555736,BaHg2(ClO)2,1.6109999999999998
mp-1190454,BaHgAs2O7,1.4969
mp-3915,BaHgO2,2.2727
mp-560702,BaHgRuO5,0.3148000000000002
mp-541217,BaHo2CoO5,1.8404
mp-17363,BaHo2O4,3.2309
mp-9785,BaHo2PdO5,1.9437999999999995
mp-6501,BaHo2ZnO5,3.0589
mp-1195686,BaHo4Si5O17,4.7860000000000005
mp-19620,BaHoCo4O7,0.18389999999999995
mp-1194202,BaHoFe4O7,1.5418000000000005
mp-23260,BaI2,3.452500000000001
mp-1182139,BaI2O,1.7736
mp-1214491,BaIBr,3.5403
mp-22951,BaIF,4.0263
mp-1182264,BaIO5,0.28190000000000004
mp-1205018,BaIn2(P2O7)2,3.9976
mp-578629,BaIn2O4,1.6657000000000002
mp-1182175,BaInCu3Se4,0.6761000000000004
mp-1228148,BaInCuF7,1.1878
mp-1214395,BaInF5,4.788
mp-555699,BaLa(BiS3)2,0.6691000000000003
mp-1201929,BaLa(SbSe3)2,0.7521000000000004
mp-18414,BaLa2BeO5,3.887000000000001
mp-771981,BaLa2Br8,3.4682
mp-771973,BaLa2Cl8,3.6782
mp-1228011,BaLa2Fe2O5F4,1.1433999999999995
mp-1227917,BaLa2Fe2O7,1.0099999999999998
mp-21699,BaLa2In2O7,2.4620000000000006
mp-6770,BaLa2MnS5,0.5770999999999997
mp-755558,BaLa2O4,3.5481
mp-8809,BaLa2PtO5,2.4067000000000007
mp-1197417,BaLa2Sc2O7,3.6348
mp-559703,BaLa2Te5O14,3.2283
mp-1200651,BaLa2Ti3O10,2.2886
mp-1227920,BaLa2TiCr2O9,1.8488999999999995
mp-1203123,BaLa2WO7,3.3332
mp-6793,BaLa2ZnO5,3.1916
mp-16452,BaLa2ZnS5,1.4565
mp-1227939,BaLa3(NiO4)2,0.4496000000000002
mp-1228230,BaLa3Mn4O10,0.6399999999999997
mp-699403,BaLa3TiCr3O12,1.8927
mp-1228245,BaLa4Ti4O15,2.9124
mp-744123,BaLa4TiCr4O15,1.8816
mp-694922,BaLa5TiCr5O18,1.9947
mp-695250,BaLa7Mg5Nb3O24,3.0726000000000004
mp-1228420,BaLa8Co(Si3O13)2,2.5382
mp-1101818,BaLaAgSe3,1.7195
mp-1214348,BaLaAgTe3,1.1401000000000003
mp-16934,BaLaAlO4,4.4343
mp-754494,BaLaBr5,2.9074
mp-772035,BaLaCl5,3.4196000000000004
mp-18079,BaLaCuS3,1.1070000000000002
mp-541430,BaLaCuSe3,1.2077999999999998
mp-17063,BaLaCuTe3,0.8203000000000005
mp-1227839,BaLaFeO4,0.9931
mp-541280,BaLaGaO4,3.9475
mp-755350,BaLaI5,2.3535000000000004
mp-41414,BaLaMgBiO6,1.2851999999999997
mp-39288,BaLaMgNbO6,2.7808
mp-39249,BaLaMgRuO6,0.24759999999999935
mp-40251,BaLaMgTaO6,2.9441
mp-1227869,BaLaMnSbO6,1.5093999999999994
mp-1227906,BaLaMnSnO6,0.8348000000000004
mp-41283,BaLaTaMnO6,0.9448
mp-42054,BaLaTaZnO6,2.5384
mp-39208,BaLaTiCrO6,1.2721
mp-1227842,BaLaTiFeO6,1.8044
mp-39259,BaLaZnRuO6,0.3789999999999996
mp-17672,BaLi(B3O5)3,5.7832
mp-557892,BaLi(BS2)3,2.8639
mp-1097520,BaLi2Ca,0.07939999999999969
mp-1019547,BaLi2Mg(PO4)2,5.6381999999999985
mp-1103771,BaLi2MnV2O8,2.7928999999999995
mp-769677,BaLi2NiO3,2.2093
mp-6175,BaLi2P2O7,5.3618000000000015
mp-1095724,BaLi2Pb,0.2986
mp-558310,BaLi2SiO4,4.3896
mp-1096018,BaLi2Sn,0.3309000000000002
mp-558083,BaLi2Ti6O14,2.8908
mp-776790,BaLi4NiO4,2.6893
mp-1178558,BaLi4O3,3.4385000000000003
mp-543044,BaLiAlF6,7.2936
mp-10616,BaLiAs,0.5951
mp-6499,BaLiBO3,4.3861
mp-554076,BaLiBS3,2.1531
mp-763851,BaLiCaVP2O9,2.0007
mp-554566,BaLiCoF6,2.2721
mp-565544,BaLiCrF6,3.9519
mp-10250,BaLiF3,6.5642999999999985
mp-1214380,BaLiGd2(MoO4)4,0.048000000000000036
mp-23818,BaLiH3,2.213
mp-40189,BaLiLaTeO6,2.9525999999999994
mp-1227900,BaLiMg2AlSi3(O5F)2,4.3081
mp-13277,BaLiP,0.9631000000000004
mp-41219,BaLiPrTeO6,3.1399
mp-10485,BaLiSb,0.6946999999999997
mp-555845,BaLiZr2F11,5.7451
mp-1214962,BaLu2F8,7.310799999999999
mp-1201039,BaLu2NiO5,2.1721
mp-752442,BaLu2O4,3.2520999999999995
mp-1200479,BaLuCo4O7,0.8927999999999998
mp-1046893,BaMg(BiO2)4,0.6147999999999998
mp-1080511,BaMg(CO2)2,1.3501000000000003
mp-1205395,BaMg(CO3)2,4.209300000000002
mp-1044425,BaMg(FeO2)4,1.6564
mp-1184337,BaMg149,0.3621999999999996
mp-1036519,BaMg14AlO16,0.0475999999999992
mp-1036171,BaMg14MnO16,1.3552999999999995
mp-694056,BaMg2Al6(Si3O10)3,3.8653
mp-643264,BaMg2FeH8,1.4470999999999998
mp-643439,BaMg2H8Os,2.1357
mp-643451,BaMg2H8Ru,1.9107
mp-1019549,BaMg2Si2O7,4.5563
mp-19084,BaMg2V2O8,3.5516
mp-1037958,BaMg30AlO32,0.35110000000000063
mp-1038613,BaMg30BiO32,0.04499999999999993
mp-1038610,BaMg30CO32,1.7329
mp-1038611,BaMg30CdO32,3.6806
mp-1036978,BaMg30CoO32,2.8342
mp-1038690,BaMg30CrO32,1.5042
mp-1037251,BaMg30CuO32,0.6265000000000001
mp-1037485,BaMg30FeO32,2.5107
mp-1037843,BaMg30MnO32,2.9053000000000004
mp-1038676,BaMg30NbO32,0.3720999999999997
mp-1036835,BaMg30NiO32,3.234
mp-1039822,BaMg30SiO32,1.5931999999999995
mp-1095706,BaMg30SnO32,1.6185999999999998
mp-1036802,BaMg30VO32,2.0007
mp-1037611,BaMg30ZnO32,3.5264000000000006
mp-1041232,BaMgAgF7,0.3674
mp-1198065,BaMgBO3F,4.1785
mp-1041248,BaMgBiF7,5.3420999999999985
mp-1047866,BaMgCoF7,2.004
mp-1047859,BaMgCrF7,3.9409
mp-1041212,BaMgCuF7,0.6999
mp-14568,BaMgF4,6.8005
mp-1047894,BaMgFeF7,3.7147
mp-643718,BaMgH4,2.3007
mp-1096735,BaMgHg2,0.14480000000000004
mp-1047862,BaMgMnF7,1.66
mp-1047848,BaMgMoF7,4.7417
mp-1047912,BaMgNiF7,1.6007
mp-756018,BaMgO2,3.1592
mp-18343,BaMgP2O7,5.322800000000001
mp-1041269,BaMgSbF7,4.8161999999999985
mp-560186,BaMgSiO4,4.113899999999999
mp-865532,BaMgTe2O7,1.8494
mp-1041239,BaMgTiF7,0.21660000000000013
mp-1093902,BaMgTl2,0.4052000000000002
mp-1228071,BaMgV2CuO8,0.07969999999999987
mp-1227934,BaMgV2ZnO8,3.1571
mp-1044203,BaMgV4O8,0.9439000000000002
mp-1047850,BaMgVF7,2.4216
mp-1047900,BaMgWF7,3.9944
mp-1228499,BaMn2Fe4O11,0.8153999999999999
mp-1193263,BaMn2FeSi2O9,0.1419999999999999
mp-540612,BaMn2O3,0.4585999999999997
mp-31918,BaMn2O8,1.8622
mp-1103900,BaMn2P2O9,1.1805
mp-1196057,BaMn2Si2O7,2.6446000000000005
mp-19507,BaMn2V2O8,2.1893
mp-1204296,BaMn3(PO4)3,0.2862
mp-1228385,BaMn3Fe3O11,0.5644
mp-767732,BaMn4O8,0.3571999999999997
mp-1215056,BaMn5(SO4)6,4.3703
mp-1194843,BaMn9V6(HO13)2,2.1178000000000003
mp-1196033,BaMn9V6O26,0.00790000000000024
mp-1214444,BaMnAlF7,4.4858
mp-19054,BaMnCO3F2,4.0865
mp-556850,BaMnF4,3.2598
mp-559999,BaMnF5,1.7942
mp-554912,BaMnFeF7,2.1283
mp-622203,BaMnGaF7,3.6239999999999997
mp-1199857,BaMnO2,0.6364999999999998
mp-1195656,BaMnP(O2F)2,1.036
mp-19194,BaMnP2O7,3.8394
mp-1194882,BaMnPClO4F,0.569
mp-8347,BaMnS2,0.4366999999999997
mp-1078949,BaMnSbF,0.12990000000000013
mp-540651,BaMnSnS4,1.1553999999999998
mp-19174,BaMnV2(AgO4)2,2.3708
mp-1214547,BaMnVF7,1.9932
mp-1047907,BaMnZnF7,1.5230000000000001
mp-567167,BaMo(PO4)2,1.6129
mp-567053,BaMo2(PO4)4,2.3292
mp-615550,BaMo2(PO6)2,2.9956
mp-1199746,BaMo2C4O17,2.8451
mp-640584,BaMo2P3O14,1.8055
mp-567328,BaMo2Se2O11,2.5836
mp-504987,BaMo3O10,2.4124
mp-566404,BaMo4(PO8)2,2.0885
mp-1182828,BaMo4O15,1.2732
mp-1048520,BaMo4O7,0.01609999999999978
mp-1201115,BaMo6I2O25,0.4514999999999999
mp-1047957,BaMoF7,2.0489
mp-1203873,BaMoI4O15,1.1917
mp-1214454,BaMoO2,0.2875000000000001
mp-19276,BaMoO4,4.0822
mp-566189,BaMoSeO6,3.0672
mp-569812,BaN3Cl,4.0774
mp-1707,BaN6,3.8159
mp-1182281,BaN6O,0.3046
mp-17864,BaNa(B3O5)3,5.501