task_id,composition,band_gap
mp-1044445,CaCoBiO5,0.6493
mvc-14346,CaCoF4,2.9636
mvc-14161,CaCoF5,2.0406
mvc-15833,CaCoF6,1.3477
mp-1213999,CaCoGeO4,2.4241
mp-1042596,CaCoMo2O7,1.1849999999999996
mvc-11274,CaCoN2,0.3933
mp-1043153,CaCoNiP2O9,0.15260000000000007
mp-1048132,CaCoO2,1.8656
mp-18776,CaCoP2O7,2.7472000000000003
mp-1042450,CaCoSb2O7,0.6996000000000002
mvc-14237,CaCoWO6,0.4639
mp-1043356,CaCr(GeO3)2,0.3882000000000003
mp-1045839,CaCr(PO3)4,2.209
mp-19441,CaCr(Si2O5)2,3.3907000000000003
mp-1157256,CaCr(SiO3)2,2.0275
mvc-10494,CaCr2(CuO4)2,0.5965000000000003
mvc-12808,CaCr2(P2O7)2,1.5773
mp-565963,CaCr2(PO4)2,2.1606
mvc-14147,CaCr2(Si2O5)4,1.4225000000000003
mp-510534,CaCr2Cu3(SbO6)2,0.6833999999999998
mvc-11949,CaCr2F10,1.7489
mvc-14383,CaCr2F12,1.3546999999999998
mp-558881,CaCr2O4,2.5777
mvc-13364,CaCr2O6,0.3928999999999998
mp-1042375,CaCr2O7,2.6242
mp-1040889,CaCr2P2O9,1.9363000000000008
mp-1040822,CaCr3(P2O7)2,2.2481
mp-1047869,CaCr3P3O13,1.0738
mp-1043430,CaCr4O6,0.2495000000000003
mp-1041451,CaCr4O9,0.6465999999999998
mp-1042764,CaCrAs2O7,1.3289
mvc-5561,CaCrAsO5,1.2233999999999994
mp-1201096,CaCrBi12(Mo2O17)2,2.5668
mvc-3299,CaCrF4,3.5894000000000004
mp-556748,CaCrF5,2.8360000000000003
mp-557519,CaCrF6,1.6869999999999998
mvc-8343,CaCrNiP2O9,0.5819999999999999
mp-1214059,CaCrO2,1.5264999999999995
mp-24909,CaCrO3,0.6156999999999999
mp-19215,CaCrO4,2.3678
mp-1204789,CaCrO6,0.7788
mp-19134,CaCrP2O7,2.9342
mp-6537,CaCu(GeO3)2,0.3338000000000001
mp-1045680,CaCu(PO3)4,0.1512
mp-6189,CaCu(Si2O5)2,0.8497999999999997
mp-1041594,CaCu(SiO3)2,0.4828000000000001
mvc-11862,CaCu2(As2O7)2,0.3682
mvc-12739,CaCu2(GeO3)4,0.3326
mp-1041448,CaCu2(MoO4)2,1.3138999999999998
mvc-14848,CaCu2(P2O7)2,0.5299
mvc-12787,CaCu2(Si2O5)4,1.2573
mp-1041279,CaCu2(SnO4)2,0.5743
mp-1041453,CaCu2(WO4)2,1.3795000000000002
mvc-13028,CaCu2F8,1.1354
mp-17599,CaCu3(GeO3)4,0.7027999999999999
mp-1043274,CaCu3(MoO3)4,0.8010999999999999
mp-1047107,CaCu3(P2O7)2,0.045899999999999615
mp-18190,CaCu3(SnO3)4,0.5281000000000002
mp-6203,CaCuAs2O7,0.01930000000000032
mp-510729,CaCuAsHO5,0.2830999999999997
mp-1197546,CaCuAsO5,0.2690000000000001
mp-1044081,CaCuBiO5,0.8046000000000002
mp-12266,CaCuF4,0.7140999999999998
mp-23686,CaCuH4(CO2)4,0.7091999999999999
mp-14694,CaCuP2O7,0.6021000000000001
mp-1041622,CaCuSb2O7,0.36229999999999984
mp-703515,CaCuSiH2O5,0.12199999999999987
mp-1041880,CaCuW2O7,0.3639999999999999
mp-1227805,CaDy2(GeO3)4,3.1696
mp-706325,CaDyMnSnO6,0.9459
mp-720985,CaEr15Si8Se11ClO28,2.5023
mp-1227561,CaEr2(GeO3)4,3.1802
mp-756244,CaEu2O3,0.015199999999999212
mp-1205634,CaEu2WO6,0.5146999999999995
mp-1227207,CaEuH6Ru,0.2487000000000004
mp-1043513,CaFe(GeO3)2,1.6032000000000002
mp-1045812,CaFe(PO3)4,4.2911
mp-1043643,CaFe(Si2O5)2,3.715100000000001
mp-18890,CaFe(SiO3)2,3.0855
mp-1040917,CaFe2(PO4)2,3.6044
mp-1117357,CaFe2(SiO3)4,2.7065
mp-1194983,CaFe2Cu3(SbO6)2,0.5545
mvc-10920,CaFe2F10,0.6080999999999999
mp-1040941,CaFe2P2O9,2.0565
mp-744240,CaFe2P3HO12,1.8441000000000003
mp-698695,CaFe2Sb2(PO4)6,2.8711
mp-1040883,CaFe3(P2O7)2,3.7926
mp-1227384,CaFe3(SiO3)4,2.7402
mp-1197792,CaFe3P3H2O13,1.6511999999999998
mp-565830,CaFe3P3O13,2.0749000000000004
mp-721924,CaFe3Si2HO9,1.3944000000000003
mp-1197428,CaFe3Si2O9,1.2586999999999997
mp-22640,CaFe4As3,0.0032000000000005357
mp-504565,CaFe5O7,1.1584
mp-1201500,CaFe5P5O22,0.6850999999999998
mp-1042824,CaFeAs2O7,1.9294
mvc-5813,CaFeAsO5,1.9926000000000004
mp-1199046,CaFeBP2(HO5)2,2.638
mp-558942,CaFeClO2,1.9232
mvc-14231,CaFeF4,3.664800000000001
mvc-14316,CaFeF5,3.5957
mp-1043130,CaFeNiP2O9,0.12030000000000007
mp-1048244,CaFeO2,2.3616
mvc-5578,CaFeP2O7,4.256500000000001
mvc-13123,CaFeReO6,1.2039
mp-566256,CaFeSbAs2O7,1.8444
mp-743601,CaFeSn(PO4)3,2.4913
mp-41331,CaGa2Cu3(SbO6)2,0.6444000000000001
mp-17914,CaGa4O7,2.5336
mp-557855,CaGaBO4,3.9612
mp-1227107,CaGaBiB2O7,3.7163
mp-1018093,CaGaGeH,0.5002
mp-1213976,CaGaH5,4.0889999999999995
mp-31152,CaGaPt,0.029300000000000107
mp-1018090,CaGaSiH,0.2628000000000004
mp-1018091,CaGaSnH,0.21010000000000065
mp-1227314,CaGd2(GeO3)4,3.1538
mp-1227214,CaGd2BeO5,2.5746999999999995
mp-752679,CaGd2O4,3.26
mp-686296,CaGd2Zr(GaO3)4,3.2017000000000007
mp-758332,CaGd4O7,2.8515
mp-1227092,CaGdAlO4,2.7718
mp-695308,CaGdTh(PO4)3,2.6080000000000005
mp-1191974,CaGe(PO4)2,3.9349
mp-4279,CaGe2O5,2.689
mp-1043370,CaGe2WO6,1.4198999999999995
mp-7801,CaGeN2,2.6618000000000004
mp-17761,CaGeO3,3.4744
mp-24044,CaH12(BrO3)2,4.1372
mp-23914,CaH12(ClO3)2,4.9878
mp-758253,CaH12(IO6)2,4.2475
mp-698021,CaH12(IO7)2,2.1012
mp-504880,CaH12CO9,4.8958
mp-758221,CaH12S2(NO5)2,4.7208000000000006
mp-1198182,CaH12S2O9,4.1198
mp-721650,CaH14I10O7,0.6776000000000001
mp-1195969,CaH14I2O7,3.6765
mp-721699,CaH16C4(NO)10,3.3534
mp-1182729,CaH16C4N8(ClO2)2,5.1051
mp-23713,CaH2,3.028
mp-23685,CaH2(CO2)2,4.6455
mp-703574,CaH2(SO4)2,5.836
mp-24272,CaH20C4S4(NO6)2,5.6987
mp-557769,CaH2C2O5,3.5377
mp-644418,CaH2CClO3,3.5729
mp-560832,CaH2CO4,5.2170000000000005
mp-1104135,CaH2F4,7.6406
mp-707754,CaH2I2O7,3.6191
mp-722900,CaH3NO5,3.4121
mp-696166,CaH4(ClO)2,5.2817
mp-695831,CaH4(N3O)2,4.1846999999999985
mp-720586,CaH4NClO5,3.5639000000000003
mp-23690,CaH4SO6,5.6879
mp-733858,CaH4Se2O7,4.1584
mp-1197414,CaH4Se2O9,3.3135
mp-24534,CaH4SeO6,3.8552
mp-720384,CaH6C2(NO)4,4.6548
mp-559469,CaH6C2O7,3.7118
mp-1213994,CaH6PtO6,1.9861
mp-1182712,CaH8(BrO6)2,3.1022
mp-24384,CaH8(ClO2)2,5.3176
mp-1204240,CaH8(ClO6)2,5.1967
mp-1202729,CaH8(NO5)2,3.4387
mp-1214326,CaH8C6S2(NO4)2,2.5623
mp-24422,CaHBr,4.1139
mp-23859,CaHCl,3.8367999999999993
mp-642725,CaHClO,5.327000000000001
mp-1227052,CaHF,4.6907000000000005
mp-24204,CaHI,3.5269
mp-34932,CaHN,2.1864000000000003
mp-558164,CaHf4O9,4.4454
mp-1036329,CaHfMg14O16,0.006899999999999906
mp-1037784,CaHfMg30O32,0.3498000000000001
mp-1029359,CaHfN2,0.3495999999999997
mp-754853,CaHfO3,4.4855
mp-1093751,CaHfRh2,0.1075999999999997
mp-1190098,CaHfS3,1.5147000000000004
mp-1182509,CaHg(IO2)4,0.3660000000000001
mp-1093912,CaHg2Bi,0.03669999999999973
mp-1097562,CaHg2Pb,0.3207
mp-1097452,CaHg2Pd,0.30530000000000035
mp-1093882,CaHgAu2,1.6544000000000003
mp-1205470,CaHgH16(BrO2)4,2.6676
mp-7041,CaHgO2,2.125
mp-1097566,CaHgPd2,0.15580000000000016
mp-1041241,CaHo(MoO3)2,1.1409000000000002
mp-1041228,CaHo(WO3)2,2.04
mp-1227515,CaHo2(GeO3)4,3.1806
mp-1041195,CaHoCr2O6,0.6022000000000003
mp-1041222,CaHoV2O6,1.0743
mp-1200915,CaIn2(PO4)3,0.007299999999999862
mp-22766,CaIn2O4,1.9991000000000003
mp-28534,CaInBr3,3.136
mp-1206105,CaInI3,2.9146
mp-560622,CaLa2B10O19,4.5433
mp-1227216,CaLa2BeO5,3.9383
mvc-11031,CaLa2CoO6,1.4531999999999998
mvc-13412,CaLa2FeO6,1.6632999999999996
mvc-11030,CaLa2MnO6,2.2973
mvc-13402,CaLa2SnO6,3.9986
mvc-13117,CaLa2Ti2Cr2O12,0.5655000000000001
mvc-14929,CaLa2Ti2Mn2O12,1.3115000000000006
mvc-13624,CaLa2TiO6,3.2128999999999994
mvc-11094,CaLa2VO6,1.7626000000000008
mp-1227065,CaLa2ZrO6,2.2481
mp-1227143,CaLa3(CoO4)2,0.4387000000000008
mp-1227476,CaLa3Mn4O10,0.8495999999999997
mp-1227220,CaLa4Si3O13,4.4833
mp-1227186,CaLaAl3O7,4.3767
mp-1048852,CaLaCr2O6,0.6357999999999997
mp-1048863,CaLaCrMoO6,1.5053
mp-1048901,CaLaCrNiO6,0.6463000000000001
mp-1048846,CaLaCrSbO6,0.6528999999999998
mp-1048919,CaLaCrSnO6,2.3656
mp-1048921,CaLaCrWO6,2.1252000000000004
mp-1044000,CaLaFeMoO6,1.1514000000000006
mp-1227068,CaLaFeO4,0.7568999999999999
mp-1043864,CaLaFeSbO6,1.9744
mp-1043948,CaLaFeSnO6,2.1986000000000008
mp-1044027,CaLaFeWO6,2.2389
mp-1227153,CaLaGa3O7,3.2636000000000003
mp-1227181,CaLaGa3S6O,2.6253
mp-559969,CaLaGaO4,3.4555
mp-770473,CaLaI5,2.0888000000000004
mp-1195311,CaLaMgAl2Si3HO13,4.413999999999999
mp-684801,CaLaMgTaO6,4.1303
mp-1049271,CaLaMnCrO6,1.0148
mp-40066,CaLaMnFeO6,1.3633000000000006
mp-705412,CaLaMnMoO6,1.3005000000000004
mp-1227173,CaLaMnNbO6,1.9534
mp-694915,CaLaMnSnO6,0.7267000000000001
mp-1227224,CaLaNbCoO6,2.0789
mp-1040806,CaLaTaCrO6,1.9194000000000004
mp-1043970,CaLaTaFeO6,2.6867
mp-39159,CaLaTiCrO6,2.3315
mp-1043825,CaLaTiFeO6,1.9794
mp-40866,CaLaTiMnO6,0.18399999999999928
mp-1048855,CaLaVCrO6,1.2525000000000004
mp-1227583,CaLu2(GeO3)4,3.1171
mp-504539,CaLu2O4,3.9028
mp-1039148,CaMg,0.10119999999999996
mp-1214468,CaMg(B3O11)2,0.00099999999999989
mp-6459,CaMg(CO3)2,5.0091
mp-1227124,CaMg(PSe3)2,2.3394
mp-6766,CaMg(SiO3)2,4.9716
mp-1184449,CaMg149,0.4990000000000001
mp-1036688,CaMg14AlO16,0.067499999999999
mp-1036258,CaMg14BiO16,0.010299999999999088
mp-1036231,CaMg14CO16,1.9946
mp-1036221,CaMg14CdO16,3.0630999999999995
mp-1036443,CaMg14CoO16,2.3316
mp-1036367,CaMg14CrO16,1.4038000000000004
mp-1036393,CaMg14CuO16,0.012399999999999524
mp-1036463,CaMg14FeO16,2.9550000000000014
mp-1036400,CaMg14MnO16,2.1615
mp-1036402,CaMg14NiO16,3.3782
mp-1036298,CaMg14SiO16,1.1447000000000005
mp-1036389,CaMg14SnO16,0.7521000000000004
mp-1036366,CaMg14VO16,1.8419
mp-1036412,CaMg14ZnO16,3.9353
mp-1229186,CaMg2(SO4)3,5.820200000000002
mp-696387,CaMg2H24(ClO2)6,4.9826
mp-1204766,CaMg2MnFe2(P2O13)2,0.3897
mp-534863,CaMg2TiAl2SiO10,2.3251000000000004
mp-6524,CaMg3(CO3)4,4.8153000000000015
mp-1227106,CaMg3(SiO3)4,4.7022
mp-1038346,CaMg30AlO32,0.3431999999999995
mp-1037798,CaMg30BiO32,0.08929999999999971
mp-1037944,CaMg30CO32,3.1216000000000013
mp-1037934,CaMg30CdO32,4.1432
mp-1038117,CaMg30CoO32,2.8026
mp-1037925,CaMg30CrO32,1.8610999999999995
mp-1038089,CaMg30CuO32,0.0046999999999997035
mp-1038045,CaMg30FeO32,3.1230999999999987
mp-1037768,CaMg30MnO32,2.9628000000000005
mp-1037903,CaMg30NbO32,0.3966000000000003
mp-1038123,CaMg30NiO32,4.1588
mp-1038016,CaMg30SiO32,2.043799999999999
mp-1037834,CaMg30SnO32,2.0381
mp-1037872,CaMg30TiO32,0.18040000000000056
mp-1038136,CaMg30VO32,2.2638000000000007
mp-1037964,CaMg30ZnO32,4.3903
mp-541026,CaMg3Si3O10,3.4088000000000003
mp-1019579,CaMg3SiN4,2.4021
mp-1201051,CaMg5P3CO16,0.6053999999999999
mp-1214060,CaMg5P3HCO16,5.0221
mp-1227274,CaMg7(SiO3)8,4.658200000000001
mp-1093662,CaMgAg2,0.26000000000000023
mp-7035,CaMgAsO4F,3.9326
mp-6585,CaMgB2O5,5.3119999999999985
mp-720718,CaMgB6(HO)22,4.9561
mp-781555,CaMgB6H12O17,5.5362
mp-558362,CaMgGeO4,3.6234
mp-24052,CaMgNiH4,1.873
mp-1213968,CaMgPO4F,5.5592000000000015
mp-1227049,CaMgS2,2.8258
mp-6493,CaMgSiO4,4.6294
mp-720999,CaMgUH24C3O23,2.3204
mp-19696,CaMgV2O7,2.7162
mp-1214024,CaMgVO5,0.7973000000000001
mp-1095876,CaMgZn2,0.1247999999999998
mp-1043484,CaMn(GeO3)2,1.6037000000000003
mp-1045779,CaMn(PO3)4,4.3902
mp-1043634,CaMn(Si2O5)2,2.7892
mp-19446,CaMn(SiO3)2,3.2619
mvc-11957,CaMn2(P2O7)2,0.6836000000000002
mp-1048915,CaMn2(PO4)2,3.2601
mp-1154719,CaMn2(SiO3)4,0.4203999999999999
mp-19548,CaMn2Be3(SiO4)3,3.8734
mp-1042685,CaMn2CoO7,0.26729999999999965
mvc-12753,CaMn2F10,1.0233000000000003
mp-18844,CaMn2O4,1.4165
mvc-12542,CaMn2O5,0.07290000000000019
mvc-10115,CaMn2P2O9,0.05160000000000009
mp-1044590,CaMn3(P2O7)2,3.7333
mp-1178473,CaMn3O4,0.7782999999999998
mp-1047886,CaMn3P3O13,0.3416000000000001
mp-1195724,CaMn3Zn(SiO3)5,2.9008
mp-566849,CaMn4(SiO3)5,2.9173000000000004
mp-1003483,CaMn4O8,0.5121000000000002
mp-565446,CaMn6SiO12,0.5927000000000002
mp-767029,CaMn7O8,0.5138999999999996
mp-1003319,CaMn8O16,0.11609999999999987
mp-1199709,CaMnAl4SiP3(HO4)5,4.590300000000001
mp-780912,CaMnAs2(H3O5)2,2.4146
mp-1042777,CaMnAs2O7,1.5539999999999998
mvc-5587,CaMnAsO5,1.3137
mp-565633,CaMnB2O5,2.9771
mp-1182751,CaMnBe2Si5O17,0.008500000000000174
mvc-14349,CaMnF4,4.0939
mp-557426,CaMnF5,1.2945
mvc-15847,CaMnF6,3.0655
mp-1227209,CaMnFeBiO6,0.6463000000000001
mp-1214074,CaMnGeO4,1.8617
mp-1043125,CaMnNiP2O9,0.026199999999999782
mp-1003322,CaMnO2,1.9757
mp-19201,CaMnO3,0.54
mp-18743,CaMnP2O7,4.2174
mp-1227051,CaMnS2,0.38290000000000013
mp-1227053,CaMnSe2,0.4497
mvc-12020,CaMnSi2O7,0.5682
mp-25699,CaMnSiHO5,1.2381000000000002
mp-1213991,CaMnSiO4,2.5918
mvc-11373,CaMnWO6,0.91
mp-1228163,CaMnZnAs2H3O10,1.8467
mp-1044205,CaMo2(PO5)2,0.6880999999999995
mp-1045279,CaMo2O5,0.8407000000000004
mp-1042314,CaMo2O7,3.7247
mp-1040876,CaMo2P2O9,2.7485000000000004
mp-1047841,CaMo3P3O13,1.1772000000000005
mp-1048023,CaMo4O9,1.0328999999999997
mp-1047199,CaMoAsO5,1.3548
mvc-14163,CaMoF5,3.7402
mvc-11084,CaMoF6,2.494
mp-989635,CaMoN3,0.8697000000000008
mp-1214054,CaMoO2,0.08060000000000045
mp-607467,CaMoO3,1.2706999999999995
mp-19330,CaMoO4,3.5057
mp-676,CaN6,3.5449
mp-1106358,CaNCl3,1.4445
mp-555424,CaNb2(P2O7)3,2.3702
mp-686705,CaNb2Ga2(CuO4)3,0.2576999999999998
mp-29792,CaNb2O4,1.2833000000000006
mp-17101,CaNb2O6,3.6052
mp-557786,CaNb2P2O11,2.4718
mp-1227146,CaNbNO2,0.6050999999999997
mp-1227167,CaNd2BeO5,3.9452
mvc-11950,CaNd2Ti2Mn2O12,1.3364000000000005
mp-677231,CaNd2Ti2ZnO9,2.4057
mp-1227184,CaNd3Cr4O16,0.3064
mp-1227115,CaNdAl3O7,4.2575
mp-1227041,CaNdAlO4,3.3080000000000003
mp-1227141,CaNdCrO4,2.2586
mp-1227142,CaNdFeO4,0.9101
mp-1227170,CaNdGa3O7,3.2279
mp-1227100,CaNdGaO4,3.8573
mp-41742,CaNdTiMnO6,0.22529999999999986
mp-1043165,CaNi(GeO3)2,2.8164
mp-1045813,CaNi(PO3)4,4.3042
mvc-14117,CaNi2(P2O7)2,0.05469999999999997
mp-19473,CaNi3(P2O7)2,4.0017
mp-1042887,CaNiAs2O7,2.6707
mp-541762,CaNiAsHO5,2.4759
mvc-5683,CaNiAsO5,0.4236
mp-1079500,CaNiBN,0.2513999999999994
mp-25716,CaNiBP2H3O10,4.3565
mp-1044575,CaNiBiO5,1.0013
mvc-8742,CaNiBiP2O9,3.3332
mvc-14355,CaNiF4,4.0193
mvc-3744,CaNiF5,2.0976
mvc-15834,CaNiF6,2.0974000000000004
mvc-5566,CaNiO2,2.5213
mp-770252,CaNiO3,1.1857000000000002
mp-19057,CaNiP2O7,3.8717
mp-1043455,CaNiSnP2O9,2.8519999999999994
mvc-12760,CaNiWO6,0.4635000000000002
mp-1227243,CaNp(PO4)2,0.19919999999999935
mp-634859,CaO2,2.7345
mp-1345,CaP,0.3443000000000005
mp-644443,CaP(HO3)2,0.1312
mp-706278,CaP2(H2O3)3,5.5328
mp-24130,CaP2(HO)4,5.5901
mp-24361,CaP2(HO2)4,5.649699999999998
mp-1041040,CaP2(WO4)2,0.2645
mp-1044163,CaP2(WO5)2,1.8870000000000005
mp-540920,CaP2H20C4(N2O3)4,5.135599999999998
mp-643898,CaP2H2O7,5.6995
mp-1214543,CaP2H5NO7,5.198099999999998
mp-24452,CaP2H6O7,6.4004
mp-1203091,CaP2H8(CO3)2,5.4331000000000005
mp-1190799,CaP2O9,0.12349999999999994
mp-1214043,CaP2PdO7,0.34450000000000003
mp-1041006,CaP2W2O9,2.2492
mp-1042052,CaP2WO7,1.4447
mp-557352,CaP2Xe5F22,2.7179
mp-9122,CaP3,0.024099999999999788
mp-705854,CaP3H10NO12,5.119
mp-849799,CaP3H16(NO4)3,4.796
mp-1047875,CaP3W3O13,0.9698000000000002
mp-697657,CaP4(HO6)2,5.6370000000000005
mp-559985,CaP4O11,5.3424
mp-1048126,CaP4W3O14,1.4127999999999998
mp-1045855,CaP4WO12,1.9165
mp-24170,CaPH3O4,6.0672000000000015
mp-721347,CaPH4O5F,5.1174
mp-24389,CaPH5O6,5.3416
mp-24390,CaPHO4,5.4321
mp-1182222,CaPIO8,3.0626
mp-1182105,CaPNO11,0.8298
mp-1214151,CaPO6,0.6836
mp-9789,CaPS3,3.0732
mp-11007,CaPSe3,2.1236
mp-1227112,CaPb3Se4,0.7126000000000001
mp-20463,CaPbF6,3.4559
mp-753670,CaPbI4,2.8227
mp-771691,CaPbI6,1.7803000000000002
mp-20079,CaPbO3,0.9331999999999998
mp-1097216,CaPd2Pb,0.12570000000000014
mp-1096025,CaPdAu2,0.6227999999999998
mp-8161,CaPdF4,1.1613000000000002
mp-7922,CaPdF6,2.1062
mp-1044742,CaPr(MoO3)2,1.1796000000000006
mp-1044771,CaPr(WO3)2,1.371099999999999
mp-1227164,CaPr2BeO5,3.9245
mp-1147781,CaPr2Mn3O9,0.3735999999999999
mp-686602,CaPr2Ti2ZnO9,2.4402
mp-1227113,CaPrAl3O7,4.2654999999999985
mp-1227145,CaPrCrO4,2.2221999999999995
mp-8255,CaPtF6,2.6430000000000002
mp-4784,CaPtO3,1.2795999999999994
mp-1181891,CaPtO6,1.989
mp-1202419,CaRe2C5N10O13,0.07769999999999988
mp-696020,CaRe2H6C(NO5)2,3.3871
mp-1202564,CaRe3H9(S2O3)2,2.4818
mp-866312,CaReH4ClO6,3.1858
mp-989606,CaReN3,1.8056
mp-1093536,CaRh2Pb,0.10380000000000013
mp-556040,CaS2(ClO3)2,4.6536
mp-1019581,CaS3O10,4.9224000000000006
mp-4406,CaSO4,5.9393
mp-1197885,CaSO6,1.9017
mp-504882,CaSb10(S3O5)2,1.7464999999999993
mp-780667,CaSb2H2F14,4.8322
mp-1044815,CaSb2P2O9,2.2597
mp-1041203,CaSb3P3O13,2.2528000000000006
mp-1196948,CaSb4H6(SO8)2,3.513
mp-1041122,CaSb4O9,0.5154999999999998
mp-1047058,CaSbAsO5,3.1
mvc-3481,CaSbF5,4.6183
mvc-3975,CaSbO3,0.14400000000000013
mp-1097497,CaSbRh2,0.0202
mp-4056,CaSc2O4,3.458
mp-39167,CaScAlSiO6,4.8888
mp-707027,CaScSi3HO9,5.0957
mp-27845,CaSe2O5,3.4779000000000004
mp-1188389,CaSe2O7,0.3025000000000001
mp-557997,CaSeO3,4.2502
mp-1190360,CaSeO4,3.3814
mp-6419,CaSi2(BO4)2,5.6644000000000005
mp-556884,CaSi2(NO)2,4.3692
mp-19220,CaSi2NiO6,4.4392
mp-29755,CaSi2O5,4.7792
mp-1041529,CaSi2SnO6,3.3719
mp-1041992,CaSi2WO6,1.5759
mp-1182049,CaSi3SnO11,0.9954
mp-1043642,CaSi4NiO10,3.3088
mp-1043411,CaSi4SnO10,3.2742
mp-1043702,CaSi4WO10,2.1854000000000005
mp-554371,CaSiBHO5,5.3854
mp-1198768,CaSiBO5,0.3998999999999999
mp-568965,CaSiN2,3.4391
mp-5733,CaSiO3,4.8811
mp-1191741,CaSiO4,0.10299999999999998
mp-1195298,CaSiP2,1.0202999999999998
mp-6809,CaSiSnO5,3.2240999999999995
mp-754240,CaSm2O4,3.8425
mp-1227109,CaSmAl3O7,4.2120000000000015
mp-1227060,CaSmAlO4,3.6121
mp-1227138,CaSmCrO4,2.2978
mp-1227208,CaSmGa3O7,3.1853000000000007
mp-1227140,CaSmMgNbO6,3.5775
mp-698702,CaSmMnSnO6,0.8956999999999997
mp-14398,CaSn(BO3)2,3.701
mp-1043030,CaSn(GeO3)2,1.8659
mp-1045579,CaSn(PO3)4,4.0251
mp-1044660,CaSn2(PO4)2,2.4956
mp-1043566,CaSn2(PO5)2,2.4987000000000004
mp-30146,CaSn2F6,3.5026
mvc-4413,CaSn2O5,1.1416
mp-1049213,CaSn2P2O9,1.1226000000000005
mp-1100353,CaSn2S5,0.8113000000000001
mp-1047074,CaSn3(P2O7)2,2.5087
mp-1044042,CaSn3O7,1.1030000000000006
mvc-10323,CaSn3P3O13,0.3651
mp-984716,CaSn4(PO4)6,3.5179
mp-1041436,CaSn4O9,0.7579000000000002
mp-1100384,CaSn5S11,0.28719999999999946
mp-1042459,CaSnAs2O7,2.2721
mvc-5477,CaSnAsO5,1.8558
mp-1048327,CaSnF4,3.5187
mvc-3405,CaSnF5,0.12259999999999982
mp-8224,CaSnF6,5.3766
mp-1095958,CaSnHg2,0.20660000000000034
mp-1029633,CaSnN2,1.3772000000000002
mp-1201737,CaSnO6,0.5074999999999998
mp-1041696,CaSnP2O7,3.6382
mp-1200443,CaSnP6(HO)12,4.234
mp-1097429,CaSnPd2,0.14970000000000014
mp-866826,CaSnS3,1.6173000000000002
mp-1041087,CaTa2(CuO4)2,0.4855
mp-556697,CaTa2Bi2O9,2.9261
mvc-7604,CaTa2CoO7,2.6655
mp-1041633,CaTa2CuO7,0.5582999999999999
mp-694913,CaTa2Ga2(CuO4)3,0.3562000000000003
mp-18229,CaTa2O6,3.4758
mp-3079,CaTa4O11,3.5437000000000003
mp-15733,CaTaAlO5,3.8999000000000006
mp-1042364,CaTaBiO5,3.5884
mp-558235,CaTaF7,5.065200000000001
mp-556340,CaTaNO2,1.6121999999999996
mp-755044,CaTb2O4,4.032
mp-989638,CaTcN3,0.4729000000000001
mp-5040,CaTe2O5,3.3658
mp-1042174,CaTe2O7,1.9045
mp-15511,CaTe3O8,2.0065
mp-559128,CaTeCO5,3.8456
mp-560656,CaTeO3,2.9142
mp-12221,CaTeO4,2.2537
mp-1227211,CaTh(PO4)2,4.6058
mp-29015,CaThBr6,2.0416
mp-1214004,CaThI6,2.9825
mp-1227121,CaThNb2O8,3.5661
mp-1227081,CaThV2O8,3.0616000000000003
mp-1042982,CaTi(GeO3)2,2.1745000000000005
mp-1045626,CaTi(PO3)4,0.16740000000000066
mp-1157680,CaTi(SiO3)2,0.051899999999999835
mp-1040989,CaTi2(CuO4)2,0.6372
mp-709021,CaTi2(HO3)2,3.0706
mp-1043473,CaTi2(PO5)2,2.5527999999999995
mp-1048301,CaTi2Be3(SiO4)3,0.0005000000000006112
mp-1042502,CaTi2CoO7,0.31020000000000003
mvc-11781,CaTi2F10,4.117
mp-1194928,CaTi2MnO6,1.6218999999999997
mvc-12368,CaTi2O5,3.1348000000000003
mp-1237057,CaTi2PbO6,2.0129
mvc-14054,CaTi2S5,1.2148000000000003
mp-1047077,CaTi3(P2O7)2,0.1634000000000002
mp-24950,CaTi4(FeO4)3,1.6248
mp-16831,CaTi4(PO4)6,2.7248
mp-1105917,CaTi4(PdO4)3,0.4513000000000007
mp-1040874,CaTi4O9,2.6104000000000003
mp-1227585,CaTi8Mn(PO4)12,2.6565000000000003
mp-1227270,CaTi8Zn2O19,2.5865
mp-1042508,CaTiAs2O7,2.6932
mvc-5383,CaTiAsO5,1.8911
mvc-14286,CaTiF4,0.3895
mp-8395,CaTiF5,0.2338
mp-27315,CaTiF6,4.609
mp-39160,CaTiFe(PO4)3,0.26459999999999995
mp-17784,CaTiGeO5,2.9243
mp-1029572,CaTiN2,2.2528
mp-1043092,CaTiNiP2O9,2.9967
mp-4019,CaTiO3,2.3238
mvc-5356,CaTiP2O7,0.12230000000000008
mp-1046492,CaTiPO5,0.12220000000000032
mp-6109,CaTiSiO5,3.0020999999999995
mp-5402,CaTl2O4,0.04610000000000003
mp-1097156,CaTl2Pb,0.02470000000000017
mp-1205521,CaTlBr3,3.8826
mp-998787,CaTlCl3,4.2088
mp-1181953,CaTlCl5O7,0.0731
mp-998615,CaTlF3,4.556699999999998
mp-1096239,CaTlHg2,0.00690000000000035
mp-1206188,CaTlI3,3.3431999999999995
mp-1227267,CaTm2(GeO3)4,3.1142
mp-1178472,CaTm2O4,4.0225
mp-567297,CaU(MoO4)4,2.0244
mp-9360,CaU(PO4)2,0.25289999999999946
mp-554227,CaU(SeO4)2,1.9516
mp-1202413,CaU2(SiO8)2,0.0565
mp-1215077,CaU2Si2(HO3)4,0.05790000000000006
mp-730691,CaU2Si2H12O17,1.9307
mp-1198547,CaU2Si2O17,0.09019999999999996
mp-1196876,CaU2V2O17,0.9657
mp-1182827,CaU3(CO10)2,0.09309999999999996