task_id,composition,band_gap
mp-704736,K6U2Mo4O21,2.1736
mp-674522,K6U4O15,1.3949000000000005
mp-1194801,K6U5As2O23,1.7907
mp-566107,K6U5V2O23,1.766
mp-1224907,K6V6P6O31,1.0159999999999998
mp-744081,K6W2N4O3,2.0547000000000004
mp-1182792,K6W4CO29,0.06500000000000006
mp-1223803,K6Zn4Sn5S17,1.615
mp-1147618,K6ZnS4,1.9713
mp-1147626,K6ZnSe4,1.6637
mp-707782,K6Zr3H8(OF)12,3.3586
mp-1195306,K7(FeTe2)4,0.1358999999999999
mp-1182713,K7As2W8O39,0.327
mp-1212704,K7Bi2P6(W2O17)2,0.25820000000000004
mp-3949,K7LiSi8,1.6927
mp-1226142,K7Mo12H29Pt2O59,0.1533
mp-1225875,K7Mo12H31Pt2O59,2.536
mp-1198435,K7Na(TeO8)4,0.006299999999999972
mp-1223881,K7Na17(ZnSn2)4,0.032499999999999966
mp-1211990,K7NaGe8,1.5638
mp-17499,K7Nb(SO4)6,2.8575
mp-1212978,K7Nb14(P3O20)3,0.09270000000000024
mp-18361,K7NbAs4,1.1294
mp-707334,K7P6H2NO22,3.6047
mp-1223738,K7Rb5(Fe2O5)2,1.3602000000000003
mp-1223774,K7RbTi8(PO5)8,3.0301
mp-17455,K7Ta(SO4)6,3.6873
mp-18073,K7TaAs4,1.0407000000000002
mp-676801,K7Th6F31,5.8527
mp-778430,K8Al2O7,2.2214
mp-1224553,K8Cu9S8(ClO18)2,0.04959999999999986
mp-1225838,K8Gd3Si12ClO34,0.14640000000000009
mp-566452,K8Hf(MoO4)6,4.0496
mp-1223723,K8La(PS4)4,0.018799999999999928
mp-1223693,K8La(PSe4)4,0.09440000000000004
mp-763525,K8Li13(FeO4)4,1.7423999999999995
mp-763674,K8Li3(FeO4)4,0.0589
mp-850924,K8Li9Cr4O16,0.7693000000000003
mp-763768,K8Li9Mn4O16,0.4358
mp-567424,K8NbAs5Pb,1.1994
mp-1194900,K8NbSnAs5,1.2655999999999998
mp-1224625,K8Nd3(Si4O11)3,0.9027000000000004
mp-1224162,K8Rb2Hg15(GeS4)10,1.5585999999999998
mp-1204485,K8Rh3(Br9O5)2,0.012299999999999978
mp-1226136,K8Sn8Se20O9,0.18510000000000004
mp-18633,K8SnSb4,0.31899999999999995
mp-1238531,K8TeP8(H5O16)2,3.7279
mp-566531,K8Th(MoO4)6,3.9442
mp-1225480,K8Ti4C16O45,0.3612
mp-684010,K8Ti5P2(O4F11)2,3.1144
mp-1204657,K8Tl10Zn,0.14279999999999982
mp-566104,K8UCr4(NO12)2,2.102
mp-704408,K8V2(S2O9)3,1.9877
mp-565913,K8Zr(MoO4)6,3.895
mp-1224617,K8Zr3Si12SnO40,0.8079000000000001
mp-866664,K8Zr6BBr20,0.052999999999999936
mp-1211836,K8Zr6BeBr20,0.8315999999999999
mp-1212020,K8Zr6MnBr20,0.04470000000000018
mp-676737,K9(NbAs3)2,0.607
mp-554554,K9Bi(PS4)4,2.0563
mp-559498,K9Bi5O13,1.0663999999999998
mp-1212015,K9Ce(PS4)4,0.20299999999999985
mp-1199172,K9CuS8(NO9)2,1.7124
mp-1199147,K9Fe2O7,2.0772
mp-14889,K9Fe2S7,0.5147999999999999
mp-21960,K9Fe2Se7,0.3782000000000001
mp-1201533,K9FeS7,1.0088
mp-1211874,K9Gd3Si12(O16F)2,3.7526
mp-1223750,K9In9GeSb22,0.4657999999999998
mp-568644,K9InSe7,1.8913
mp-556215,K9Li3I2O13,0.7542
mp-1195894,K9Li3Nd3(BO3)7,3.7539
mp-735580,K9Mg3Nb5(PO5)8,0.35200000000000004
mp-1211992,K9Nd(PS4)4,2.7223
mp-560235,K9Sm3Si12(O16F)2,4.5766
mp-36002,K9Ta10O30,2.2443
mp-1224624,K9Ta2VS12,1.8533
mp-558206,K9U6BiO24,1.7042000000000002
mp-1198649,K9Y3Si12(O16F)2,4.683599999999998
mp-863710,KAcTe2,1.1136999999999997
mp-582994,KAg(CN)2,3.0962
mp-18429,KAg(NO3)2,2.4208
mp-557874,KAg(PO3)2,2.9041
mp-12015,KAg2AsO4,0.2073999999999998
mp-561304,KAg3As2S5,1.6822999999999997
mp-18577,KAg3S2,1.3339
mp-9782,KAg3Se2,0.006599999999999939
mp-1205342,KAg3Te2,0.2498
mp-28468,KAg5S3,0.6946999999999999
mp-10102,KAgC2,2.4624
mp-680197,KAgC2(SN)2,2.9337
mp-541966,KAgCO3,2.2109
mp-7387,KAgF4,1.8518
mp-997088,KAgO2,0.9551
mp-1196972,KAgPSe3,1.3432000000000002
mp-16236,KAgSe,0.4838
mp-1223690,KAgSnSe3,1.2816
mp-1211783,KAgTeS3,1.8163
mp-696221,KAl(H2N)4,0.20340000000000005
mp-19352,KAl(MoO4)2,3.8863
mp-1019802,KAl(PO3)4,5.1797
mp-1181191,KAl(SO10)2,0.0259999999999998
mp-7645,KAl(SO4)2,5.5292
mp-1205042,KAl(SO7)2,0.21439999999999992
mp-554433,KAl(SiO3)2,4.755000000000001
mp-863358,KAl11O17,4.674899999999999
mp-1211834,KAl2(SiO3)4,1.0111
mp-30978,KAl2Br7,4.128
mp-744988,KAl2NiP3(H2O7)2,4.5312
mp-1211858,KAl2NiP3O14,0.3466
mp-758536,KAl2P2H4O11,0.7236000000000001
mp-541870,KAl2P2H5O11,5.2526
mp-698033,KAl2P2H8O12F,4.9791
mp-1212272,KAl2P2O11,0.4282999999999999
mp-1223770,KAl3(SiO4)3,0.3596000000000001
mp-1223658,KAl3Fe2Si2(HO6)2,3.3420000000000005
mp-1200795,KAl3Si3(HO6)2,4.8138000000000005
mp-1197469,KAl4(SiO6)2,0.4779000000000001
mp-1212100,KAl4Fe3(HO6)2,1.3213
mp-1019803,KAl9O14,4.1426
mp-9230,KAlAs2O7,3.0235
mp-1211750,KAlBr4,4.2233
mp-1200100,KAlCO6,0.1109
mp-1223704,KAlCl2O,4.2784
mp-27755,KAlCl4,5.2863000000000016
mp-1223622,KAlCo3Si3(HO6)2,2.7244999999999995
mp-1211751,KAlCr2(HO4)2,1.2074
mp-1104925,KAlCr2O10,0.4062999999999999
mp-18124,KAlCuF6,0.08090000000000003
mp-561424,KAlF4,6.9091
mp-651024,KAlGeO4,3.938
mp-644285,KAlH2CO5,5.0845
mp-31097,KAlH4,5.0677
mp-723378,KAlH6(OF3)2,6.9766
mp-1103524,KAlN4,0.20219999999999996
mp-1223554,KAlNiF6,5.152
mp-35893,KAlO,0.1318999999999999
mp-5525,KAlO2,3.9994
mp-734394,KAlP2H4O9,5.2367
mp-17031,KAlP2O7,5.2967
mp-722684,KAlP4(H2O7)2,5.653
mp-1200491,KAlPO5,0.021399999999999864
mp-29373,KAlSb4,0.2452000000000005
mp-1211743,KAlSe2,2.4165
mp-1180795,KAlSi2,0.013799999999999812
mp-1223621,KAlSi3Ni3(HO6)2,3.228
mp-697670,KAlSi3O8,4.9267
mp-680374,KAlSiO4,4.6996
mp-18347,KAlTe2,1.8992
mp-713,KAs,0.6695
mp-1223614,KAs(OF2)2,0.6383000000000001
mp-28085,KAs2F7,4.7762
mp-1223607,KAs3(PbO3)4,3.4923
mp-23083,KAs4BrO6,2.7254
mp-556233,KAs4ClO6,3.0465
mp-23126,KAs4IO6,2.3454
mp-7569,KAsF6,4.9041
mp-30298,KAsO2,3.8449
mp-1192552,KAsO3,3.1255
mp-1095533,KAsO4,0.8765
mp-17539,KAsOF4,3.7145
mp-1203725,KAsOF5,1.1816999999999998
mp-1224684,KAsSe3O,1.1441
mp-1198481,KAsW2O9,2.3864
mp-1202314,KAu(Br2O)2,0.3625
mp-672348,KAu(CN)2,2.9012
mp-1212182,KAu(Cl2O)2,0.6558999999999999
mp-557441,KAu(IO3)4,2.1081000000000003
mp-555085,KAu(NO3)4,2.0172
mp-561454,KAu(SO4)2,1.4475
mp-29694,KAuBr4,0.8103
mp-10423,KAuC2,2.0269000000000004
mp-641962,KAuC2(SN)2,2.2406
mp-27181,KAuCl4,1.4392
mp-5309,KAuF4,2.4468
mp-12442,KAuF6,2.1117
mp-31045,KAuI3,0.6644
mp-29519,KAuI4,0.3003
mp-567218,KAuN12,1.4531
mp-997002,KAuO2,1.4088
mp-7077,KAuS,2.1003000000000003
mp-3592,KAuS5,1.7571
mp-9881,KAuSe,1.816
mp-29138,KAuSe2,0.8757999999999999
mp-3257,KAuSe5,1.0431
mp-1202400,KB(CF3)4,7.864000000000001
mp-574060,KB(CN)4,6.2294
mp-559030,KB(CO2)4,3.4883
mp-1019805,KB(S2O7)2,5.5005
mp-1019804,KB(SO4)2,6.2377
mp-707961,KB3(H3O4)2,4.0008
mp-605642,KB3(HO3)2,4.8267
mp-559636,KB3O5,5.225300000000002
mp-1201786,KB3SeO7,4.5454
mp-706621,KB5(H2O3)4,5.635
mp-1199251,KB5(H2O5)2,6.097899999999999
mp-1180867,KB5O12,0.4468999999999999
mp-12183,KB5O8,5.3412
mp-1237093,KB6(HO)6,2.1687000000000003
mp-1205091,KB6F6,2.6402
mp-1200547,KB6H4(OF3)2,2.7042
mp-758840,KB6P(H2O7)2,5.8809000000000005
mp-1200783,KB6S4(Cl3O4)2,1.7687
mp-1106282,KBC3N3F,5.7453
mp-559648,KBC4NF9,6.8493
mp-559721,KBCF6,7.1092
mp-1202872,KBCNF3,7.0081
mp-4929,KBF4,7.9327
mp-37722,KBH4,6.0978
mp-567593,KBH4(CN4)2,4.7975
mp-3919,KBO2,4.1301000000000005
mp-1195407,KBOF2,6.0523
mp-1223679,KBP2PbO8,4.6329
mp-15012,KBS2,2.7676000000000003
mp-560423,KBS4(ClO3)4,4.6223
mp-560320,KBa2(PO3)5,5.1425
mp-675063,KBa2As5,0.2582999999999997
mp-1205075,KBa2Cd2Sb3,0.20150000000000026
mp-1211784,KBa2I5,3.7099
mp-1205512,KBa2IO6,2.7614000000000005
mp-1223553,KBa2Ni2F9,4.9626
mp-1223502,KBa2V2ClO7,3.2792
mp-1223606,KBa2Zn3B9O19,3.6172
mp-1223536,KBa3Ga5(Se5Cl)2,2.2115
mp-557602,KBa4Au(CO)4,2.6467
mp-23571,KBa4Bi3O,0.7284000000000002
mp-557761,KBa4Sb3O,1.0220000000000002
mp-40677,KBa4Ti5O14F,1.3418
mp-677520,KBa6Zn4(GaO3)7,2.4589
mp-706815,KBa7Al15Si17O64,4.1522999999999985
mp-677121,KBaAl3Si5O16,4.7151
mp-1192590,KBaAsO4,3.8273
mp-1096579,KBaAu2,0.1857
mp-1223526,KBaB(PO4)2,5.3132
mp-1040443,KBaBiTeO6,1.6254999999999995
mp-1223640,KBaCr2(PO4)3,2.9513
mp-743573,KBaFe2(PO4)3,2.5398000000000005
mp-19613,KBaFeO3,2.3578
mp-1223587,KBaGd(MoO4)3,2.9626
mp-695157,KBaIn2(PO4)3,3.4535
mp-1223441,KBaLiZnF6,5.5615
mp-1223630,KBaNa2Ti3Fe(Si2O9)2,2.6769
mp-16780,KBaNbS4,2.0731
mp-961648,KBaP,1.1622
mp-1204803,KBaP3O10,0.9257
mp-6812,KBaPO4,4.9459
mp-17088,KBaPS4,2.3898
mp-18156,KBaPSe4,1.2588
mp-995194,KBaSiHO4,3.928500000000001
mp-1223573,KBaV2CuClO7,0.2157
mp-1223694,KBaV3Cd2O11,3.1037
mp-1212585,KBaV5(H2O7)2,2.1027
mp-1181733,KBaV5O18,1.0055999999999998
mp-18892,KBaVO4,3.9789999999999996
mp-1223465,KBaY(BO2)6,5.2108
mp-559670,KBaYSi2O7,4.6816
mp-24355,KBe(H2N)3,2.8166
mp-560431,KBe(PO3)3,5.5581999999999985
mp-1193116,KBe2B3O7,5.5359
mp-6870,KBe2BO3F2,6.0552
mp-18509,KBe3ZnF9,6.2447
mp-1211678,KBeF3,7.0581
mp-974757,KBeH3,3.0876
mp-7324,KBePO4,5.2347
mp-31104,KBi,0.4058999999999999
mp-559020,KBi(PO3)4,4.8932
mp-557437,KBi(PS3)2,2.2234000000000003
mp-569435,KBi(PSe3)2,1.614
mp-510667,KBi(WO4)2,2.7093000000000003
mp-675634,KBi2F7,4.6755
mp-1211670,KBi3F10,4.4613999999999985
mp-555393,KBi6BrO9,2.3298
mp-557071,KBi6ClO9,2.3531000000000004
mp-558501,KBi6IO9,2.2881000000000005
mp-581857,KBiF4,3.2279
mp-557724,KBiF6,2.7083
mp-698353,KBiH10C4O13,3.0464
mp-649415,KBiN(ClO)3,3.1015
mp-30988,KBiO2,1.8496
mp-23572,KBiP2S7,2.444500000000001
mp-23645,KBiS(ClO2)2,4.178999999999999
mp-23550,KBrF4,3.2009
mp-22958,KBrO3,3.8455
mp-27428,KBrO4,3.0759
mp-243,KC,3.2603
mp-555541,KC(NO2)2,1.9925
mp-555972,KC(NO2)3,2.1635
mp-16791,KC10,0.6087000000000002
mp-567299,KC2IN2,4.5211
mp-567823,KC2N3,3.717
mp-6902,KC2S2N(O2F3)2,6.2589
mp-1211820,KC4(OF)2,3.6468
mp-574029,KC4N3,3.7393
mp-558178,KCBr(NO2)2,2.0874
mp-1077078,KCN,5.0381
mp-558995,KCN3O2,3.3480000000000003
mp-1223463,KCNO,4.6904
mp-560616,KCO2,2.7324
mp-1106094,KCO3,0.8540999999999999
mp-1211696,KCOF3,6.3725
mp-559646,KCS(OF)3,5.2646
mp-555146,KCS2N(O2F)2,4.4578
mp-6511,KCSN,4.1109
mp-568943,KCSeN,3.6215
mp-720856,KCa(H2N)3,2.1993
mp-11625,KCa(PO3)3,5.0389
mp-6813,KCa10(PO4)7,5.2410000000000005
mp-565379,KCa10V7O28,3.8017
mp-557227,KCa12Si4S2O26F,4.2813
mp-1223725,KCa2(P2O9)2,0.009499999999999951
mp-1224857,KCa2(SiO3)8,0.0468
mp-693620,KCa2Be2Al(Si2O5)6,4.8687999999999985
mp-1224080,KCa2Mg2V3O12,3.2828000000000004
mp-557195,KCa2Nb3O10,1.9568
mp-697128,KCa2P4H11O18,5.2791000000000015
mp-706303,KCa2P4H9O17,5.3696
mp-1223597,KCa3Mg3Al(SiO3)8,4.9487
mp-555023,KCa4(BO3)3,4.5893
mp-722344,KCa4B22H18ClO46,5.5101
mp-1196532,KCa4Si8H16O28F,4.8744000000000005
mp-708991,KCa4Si8H16O29,0.9657
mp-1181193,KCa4Si8O28F,0.26680000000000004
mp-534793,KCa5Mg5Al(SiO3)12,4.8377
mp-1202104,KCa7Si3(O4F)3,4.711600000000002
mp-9468,KCa9Mg(PO4)7,5.2794
mp-566697,KCa9Mn(PO4)7,4.5046
mp-557743,KCaAl2F9,7.1437
mp-1237884,KCaAs(H4O3)4,0.01570000000000002
mp-773137,KCaBi,0.8270000000000002
mp-998599,KCaBr3,4.4047
mp-6867,KCaCO3F,4.3468
mp-1211643,KCaCl3,5.5662
mp-1197796,KCaCoC6(S3O5)2,0.6286
mp-1212098,KCaCr2F9,2.9845
mp-735489,KCaCrH10C6O17,3.3606
mp-1211692,KCaEr2CuS5,1.4413000000000005
mp-5926,KCaF3,6.6469000000000005
mp-1212124,KCaFe2F9,3.2864000000000004
mp-1105914,KCaH3,3.3245
mp-1205722,KCaI3,3.655
mp-682067,KCaNb2O6F,2.7607
mp-676934,KCaNd(PO4)2,4.7393
mp-733862,KCaP3(HO2)6,5.230499999999998
mp-706367,KCaP3H4O11,5.2022
mp-1211637,KCaPHO4,2.3317
mp-1106014,KCaPO5,0.0769
mp-995190,KCaSiHO4,4.3515
mp-1212044,KCaV2F9,2.1571
mp-1199830,KCd(BH4)3,3.9466
mp-1196758,KCd(BO2)3,3.7535
mp-1192169,KCd(CO2)3,0.2318
mp-11017,KCd(NO2)3,2.305
mp-1211746,KCd(PO3)3,4.1316
mp-720519,KCd2H8C10N15O4,0.014900000000000137
mp-554483,KCd3H8Cl7O4,3.4217000000000004
mp-1223535,KCd4Ga5S12,1.9671
mp-720082,KCd6H4C12ClO26,2.8157
mp-16382,KCd6P7O24,3.2745999999999995
mp-1018736,KCdAs,0.17270000000000008
mp-17799,KCdC3(NO)3,4.1312
mp-23442,KCdCl3,3.5095
mp-9628,KCdF3,3.3579
mp-734377,KCdP3H8O13,4.4116
mp-1223568,KCe(MoO4)2,0.05259999999999998
mp-540753,KCe(PO3)4,0.1581999999999999
mp-1211829,KCe(SO4)2,0.1629000000000005
mp-1211775,KCe(WO4)2,0.042800000000000615
mp-669330,KCe2CuSe6,0.08139999999999993
mp-1223771,KCeFeMoO6,0.5127000000000002
mp-21176,KCeGeSe4,0.10860000000000004
mp-510463,KCeH2S2O9,0.02159999999999984
mp-756880,KCePCO7,1.1577
mp-22809,KCeSiS4,0.13089999999999954
mp-1223462,KCeTi2O6,0.11260000000000048
mp-31368,KClO2,2.3095
mp-556084,KClO3,5.5613
mp-23526,KClO4,5.539
mp-1180982,KCo(CO)4,3.8163
mp-1201035,KCo(N3O4)2,0.8374999999999999
mp-1192408,KCo(PO3)3,2.9814
mp-1103899,KCo2(MoO5)2,0.013499999999999998
mp-1211872,KCo2(PO4)2,0.00109999999999999
mp-746371,KCo2As2HO8,2.0013
mp-1223548,KCo2H3(SeO5)2,2.1004
mp-1211719,KCo3Cu(AsO4)3,0.4778000000000002
mp-646599,KCo4(PO4)3,2.5376000000000003
mp-1194626,KCoAs3F18,3.4232
mp-561348,KCoF3,2.1918
mp-1211851,KCoF4,1.8286
mp-1212205,KCoH2CN4O7,0.6747999999999998
mp-973926,KCoH3(CO2)3,2.9743
mp-1205282,KCoMo3(AsO6)3,0.011399999999999966
mp-1223680,KCoP2H5O9,3.2333
mp-643954,KCoPH2O5,2.7927
mp-1203986,KCoPO4,2.8939
mp-1211853,KCr(CO2)4,0.6027000000000002
mp-1211679,KCr(MoO4)2,2.7439999999999998
mp-1212822,KCr(SO10)2,0.03310000000000002
mp-1211656,KCr(SO4)2,2.9599
mp-1223609,KCr12Si8BrO28,2.1944
mp-1223595,KCr12Si8ClO28,2.1567
mp-565232,KCr2AgO7,1.6229
mp-1211729,KCr2Fe(HO4)2,0.4891999999999999
mp-1104716,KCr2FeO10,0.18310000000000004
mp-566012,KCr2FeO8,1.7437
mp-743548,KCr2H(CO)10,0.7538
mp-567350,KCr2PbF9,3.0941
mp-1196860,KCr3BiO12,0.6248
mp-25506,KCr3H6(SO7)2,2.5237
mp-19335,KCr3O8,1.8261
mp-18881,KCr4O8,0.006699999999999928
mp-12178,KCr5S8,0.3523000000000005
mp-1104473,KCr5Se8,0.1187999999999998
mp-1181049,KCrC4O13,0.20600000000000007
mp-1223559,KCrCdC6N6O,0.8942999999999999
mp-25497,KCrClO3,2.7829
mp-559305,KCrCuF6,0.3488
mp-566698,KCrF3,1.937
mp-559329,KCrF4,2.9232
mp-561183,KCrF6,1.398
mp-25514,KCrH18N6(ClO2)4,3.7571
mp-743530,KCrH24(SO10)2,3.7063
mp-1189653,KCrH4(C2O5)2,3.1290000000000004
mp-566379,KCrIO6,2.6423
mp-1223481,KCrNiF6,2.9902
mp-1223657,KCrNiOF6,0.8651
mp-561800,KCrO2,2.8989000000000003
mp-1223546,KCrO3F,2.7275
mp-24922,KCrP2O7,2.8454
mp-7147,KCrP2S7,1.2502999999999995
mp-1178159,KCrPCO7,0.7204
mp-19498,KCrPO4F,2.5013
mp-4026,KCrS2,1.1611999999999996
mp-558063,KCu(BiS2)2,0.6732
mp-6802,KCu(CN)2,2.6066
mp-1103698,KCu2(SO5)2,0.014299999999999981
mp-1196871,KCu24Ag9H48Pb26(Cl31O24)2,0.029199999999999893
mp-554421,KCu2AsS3,1.1635999999999995
mp-1194436,KCu2BiS3,0.6613000000000002
mp-1178150,KCu2H2(SO5)2,0.016599999999999948
mp-42805,KCu2H20N3(Cl2O)4,0.8303
mp-1223515,KCu2H3(SO5)2,0.411
mp-642804,KCu2P2H3(O4F)2,0.3575999999999999
mp-1199182,KCu2SbSe3,0.7134999999999998
mp-699550,KCu3Ag(MoO4)4,0.3977
mp-1198047,KCu3P3(O4F3)2,0.18869999999999987
mp-1180900,KCu3PbSe4,0.1815
mp-541622,KCu3Te2,0.4272
mp-21578,KCu4(AsO4)3,0.1938000000000004
mp-1223529,KCu7S4,0.22389999999999954
mp-1199109,KCuB7O13,0.13779999999999992
mp-5256,KCuC2,1.9346
mp-27450,KCuCl3,0.002299999999999969
mp-1147650,KCuH3,0.6413
mp-7911,KCuO,1.2469
mp-3982,KCuO2,0.8604999999999999
mp-622199,KCuP2Se5,1.2294
mp-706287,KCuPH2O5,0.016899999999999915
mp-568611,KCuPSe3,1.0053
mp-11114,KCuPdSe5,1.0179
mp-28270,KCuS,1.8615
mp-1195095,KCuSb3F18,0.10400000000000008
mp-7435,KCuSe,0.17819999999999991
mp-7436,KCuTe,0.6037000000000003
mp-1147551,KCuTeO6,0.7739
mp-9807,KDy(CO3)2,4.3497
mp-1211686,KDy(MoO4)2,3.5981
mp-543036,KDy(PO3)4,5.4718
mp-555816,KDy(SeO4)2,3.4722
mp-540942,KDy2Cl7,4.5535
mp-1211771,KDy2F7,6.9029
mp-1211612,KDy3F10,6.9807000000000015
mp-605166,KDyH2C2SO9,3.1224
mp-1237296,KDyH2S2O9,5.4612
mp-1178141,KDyO2,3.9764
mp-15785,KDyS2,2.3354
mp-1211619,KDyTiO4,2.2649000000000004
mp-1211628,KEr(CO3)2,4.3824
mp-1211601,KEr(MoO4)2,3.5569
mp-554615,KEr(PO3)4,5.373399999999998
mp-18555,KEr(SO4)2,5.8689
mp-1212212,KEr(SO5)2,0.237
mp-1212002,KEr(SeO4)2,3.4423
mp-566132,KEr(WO4)2,3.286
mp-1211690,KEr2Cl7,4.6121
mp-1192275,KEr2Cu3Se5,1.1387
mp-16560,KEr2CuSe4,0.9440000000000001
mp-558238,KEr2F7,6.9045999999999985
mp-18451,KEr3F10,7.061
mp-1201270,KErF4,6.8252
mp-722310,KErHSe2O9,0.20720000000000005
mp-7959,KErO2,3.9606
mp-1211811,KErP2O7,4.9416
mp-1203958,KErP2O9,0.31370000000000003
mp-554741,KErP2S7,2.6558
mp-707511,KErP4(H2O9)2,0.27929999999999994
mp-4326,KErS2,2.3715
mp-9263,KErTe2,1.3347000000000002
mp-1211620,KEu2Cl5,1.1305999999999998
mp-29614,KEu2I5,1.2522000000000002
mp-646548,KEuAsS3,0.49200000000000005
mp-21903,KEuGeS4,0.006799999999999917
mp-18045,KEuPO4,0.9541999999999992
mp-628735,KEuPS4,0.5602999999999998
mp-562302,KEuSiS4,0.2668999999999999
mp-976802,KF2,1.3494000000000002
mp-867934,KF3,0.6421000000000001
mp-567452,KFe(MoO4)2,2.4579
mp-24943,KFe(SO4)2,2.1547
mp-1181638,KFe(SO6)2,0.627
mp-654225,KFe(SeO3)2,2.1843
mp-1178195,KFe11O17,1.1744
mp-565301,KFe2(PO4)2,1.9463
mp-735586,KFe2H(SeO3)4,2.2587
mp-735566,KFe2P2H5O11,2.5033000000000003
mp-1196130,KFe2P2O11,0.0046
mp-1205183,KFe2P3(O4F3)2,2.4269000000000003
mp-1204715,KFe3As4(HO8)2,2.4985
mp-1192851,KFe3H6(SO7)2,1.8508
mp-735701,KFe3P8(H11O18)2,2.8003
mp-1202220,KFe4(PO4)3,3.2334
mp-1223588,KFe4(SiO4)3,1.7864999999999998
mp-565326,KFeAs2O7,2.6999
mp-635134,KFeBP2HO9,2.9279
mp-23348,KFeBr3,0.055099999999999934
mp-1211520,KFeBr4,0.9927
mp-743941,KFeC6(NO)3,4.4461
mp-23538,KFeCl3,0.0477000000000003
mp-28435,KFeCl4,1.2994
mp-1194524,KFeCo(PO4)2,1.9861
mp-641497,KFeCo3(PO4)3,2.3595
mp-1199970,KFeCu(PO4)2,0.4981
mp-556891,KFeF3,2.907
mp-567309,KFeF4,3.0627
mp-764405,KFeH2S2O9,2.1671
mp-1223582,KFeH5(SO5)2,3.826
mp-1194949,KFeNi(PO4)2,2.4312
mp-566313,KFeO2,2.1388000000000003
mp-1097023,KFeO3,0.4780000000000001
mp-561829,KFeP2O7,2.8118000000000003
mp-763393,KFeP4(H2O7)2,3.0577
mp-1200689,KFeP4(HO3)4,0.06540000000000012
mp-769579,KFePCO7,0.0011999999999999786
mp-565967,KFePO4,3.3087
mp-19558,KFePO4F,2.4331
mp-1180967,KFePbOF6,1.3207
mp-1192804,KFeS2O9,0.205
mp-1223574,KFeSn3O8,1.4572000000000005
mp-1237028,KGa(PH)2,0.5625
mp-555554,KGa(PO3)4,4.5523
mp-1203541,KGa(SeO3)2,3.2031
mp-559730,KGa(Te3O7)2,2.9741
mp-680577,KGa2Cl7,4.0476
mp-181,KGa3,0.21629999999999994
mp-557918,KGaAs2O7,2.6826
mp-28680,KGaBr4,3.5771
mp-30219,KGaCl4,4.3612
mp-627383,KGaCoC4Cl3O4,3.7242
mp-15408,KGaF4,5.2165
mp-1223610,KGaFe(CN)6,4.1758
mp-1223555,KGaGe3O8,3.0491
mp-1213396,KGaGeO4,3.1871
mp-1223528,KGaGeS4,2.3686
mp-696983,KGaH4,4.9362
mp-1203242,KGaH9C3F,3.9823
mp-29402,KGaI4,2.605
mp-4066,KGaO2,3.0499
mp-18348,KGaP2O7,4.3848
mp-9332,KGaPO4F,4.1080999999999985
mp-17650,KGaS2,2.5331
mp-29383,KGaSb2,0.9419999999999996
mp-29374,KGaSb4,0.2906000000000004
mp-17965,KGaTe2,1.2481
mp-9806,KGd(CO3)2,2.699
mp-1211580,KGd(MoO4)2,3.1751
mp-1224518,KGd(NbCl3)6,0.3641000000000001
mp-559799,KGd(PO3)4,3.4915
mp-1212816,KGd(SeO4)2,3.0702000000000003
mp-565752,KGd(WO4)2,3.1438000000000006
mp-1211663,KGd2Cl7,2.5533
mp-698120,KGd2Cu(MoO4)4,0.7997000000000001
mp-15553,KGd2CuS4,1.033
mp-861926,KGd2CuSe4,0.8559000000000001
mp-554005,KGdCO3F2,2.7183
mp-1104447,KGdGeS4,1.6116
mp-1212322,KGdH2C2SO9,2.7884
mp-757021,KGdO2,3.05
mp-24277,KGdP2H4O9,3.2754000000000003
mp-555331,KGdPdO3,0.9409
mp-15784,KGdS2,1.8308
mp-20420,KGdTe2,0.7134999999999998
mp-542281,KGdTe4,0.0054999999999996154
mp-1211763,KGdTiO4,2.1472
mp-2146,KGe,0.9106
mp-18203,KGe2(PO4)3,3.6226
mp-556463,KGe2BO6,3.498
mp-1029404,KGe2N3,1.5658000000000003
mp-554859,KGeAuS3,2.2108
mp-866646,KGeBiS4,1.8562
mp-998612,KGeBr3,2.9026
mp-998613,KGeCl3,2.8194
mp-6955,KGeNO,2.6817
mp-754175,KGePCO7,3.4663
mp-14383,KGePO5,3.2291
mp-14352,KGeSbO5,2.5520000000000005
mp-24084,KH,3.4387
mp-695892,KH(IF6)2,4.4279
mp-720407,KH(IO3)2,3.3546000000000005
mp-1201889,KH13C4(NO)2,3.0334000000000003
mp-600177,KH13CBrNO7,1.8195
mp-541901,KH18OsN6(ClO2)4,3.0483
mp-1223560,KH2(IO3)3,3.1952
mp-1196190,KH25C13(NO4)2,1.1943
mp-720529,KH28S4N7O16,0.007599999999999941
mp-696650,KH2Au(Cl2O)2,0.5065
mp-1196083,KH2AuC4N4O,4.2573
mp-1212361,KH2C4N3O4,1.5862
mp-1211655,KH2CN5,4.0172
mp-696649,KH2I3O,1.8902
mp-24428,KH2N,2.0569
mp-1211579,KH2OsNCl4,1.5501
mp-707976,KH2SeNO3,3.6477
mp-23682,KH3(CO2)2,4.8037
mp-733655,KH3(SO4)2,5.5912000000000015
mp-1180593,KH3(SeO3)2,4.3603000000000005
mp-1200593,KH3(SeO4)2,3.3891
mp-643365,KH3C2O3,5.1738
mp-555919,KH3C2S2O,2.5354
mp-1198088,KH3CO6,4.1564999999999985
mp-1212156,KH3CSN2O,1.0089
mp-29331,KH3F4,7.3637000000000015
mp-28263,KH3O2,4.3804
mp-697284,KH3SO6,4.5855
mp-1211718,KH4C6O3F5,2.3521
mp-632812,KH4F5,7.439
mp-983327,KH4O2F,5.1821
mp-867524,KH4O4F,0.6646000000000001
mp-1223740,KH4PbI3O2,2.7569
mp-676232,KH5O3,4.3271
mp-541415,KH5S2O9,5.4879
mp-24179,KH6C2S2NO4,5.3158
mp-974267,KH8N3,2.5334
mp-707068,KH8O4F,5.1545000000000005
mp-1211841,KH8W(NF3)2,3.4661
mp-1223712,KH8WN2(OF)3,3.8510000000000004
mp-28196,KH9O5,4.7217
mp-1192729,KHC(NO)2,0.8191999999999999
mp-24625,KHCN2,3.8763
mp-1211566,KHCN4O5,2.7665