task_id,composition,band_gap
mp-1110640,K2InAsBr6,0.03769999999999985
mp-1112187,K2InAsCl6,0.4868999999999999
mp-1111944,K2InAuF6,0.3542
mp-1112359,K2InBiF6,2.1197
mp-1202888,K2InBr5O,0.2981
mp-1203905,K2InCl5O,0.6495000000000001
mp-1112184,K2InGaBr6,0.8229
mp-1111982,K2InGaCl6,1.5288
mp-1112221,K2InGaF6,2.5553
mp-1112021,K2InGaI6,0.15599999999999992
mp-766966,K2InH2Cl5O,3.4498
mp-862780,K2InP2S7,1.8702
mp-1112183,K2InSbBr6,0.23750000000000004
mp-1112017,K2InSbCl6,0.6806999999999999
mp-1112181,K2InSbF6,1.8032000000000004
mp-1112018,K2InSbI6,0.4658000000000002
mp-775466,K2InSi4HO11,4.0332
mp-1112262,K2IrAuF6,0.3754000000000001
mp-648833,K2IrCBr5O,1.815
mp-1019777,K2La2B2O7,4.2027
mp-1120766,K2La4O7,2.7306000000000004
mp-1112481,K2LaAgCl6,3.3505000000000003
mp-1112425,K2LaAuCl6,2.2463
mp-1212029,K2LaBr5,3.4993
mp-1201545,K2LaCl5,4.1568
mp-1112230,K2LaCuCl6,2.1312
mp-541986,K2LaH4N5O17,3.2718
mp-1212017,K2LaI5,2.7388
mp-1196445,K2LaN5O17,0.4081
mp-559549,K2LaNb5O15,1.8326
mp-542081,K2LaP2S7,2.2583
mp-542078,K2LaP2Se7,1.4926
mp-1178167,K2LaPCO7,4.1698
mp-1204933,K2LaTa5O15,2.5553
mp-1212099,K2LaTa6(Br5O)3,1.1357999999999997
mp-1198663,K2Li(H2N)3,2.0801
mp-504806,K2Li14Pb3O14,1.9157
mp-17208,K2Li14Zr3O14,4.2801
mp-764636,K2Li2CoO4,1.2409
mp-25751,K2Li2FeO4,0.4025000000000001
mp-773981,K2Li2NiO4,0.012699999999999987
mp-762240,K2Li2TiO4,4.2118
mp-1019778,K2Li3B(P2O7)2,5.5903
mp-761715,K2Li3CoO4,1.4536999999999998
mp-767808,K2Li3CrO4,1.2522000000000002
mp-24988,K2Li3FeO4,3.0917
mp-17774,K2Li3GaO4,3.4186
mp-773442,K2Li3MnO4,0.8517000000000001
mp-774432,K2Li3NiO4,1.809
mp-559263,K2Li4UO6,2.1501
mp-9839,K2LiAlF6,7.4418
mp-23774,K2LiAlH6,2.5761
mp-6450,K2LiAlP2,1.8853
mp-1111928,K2LiAsF6,4.5591
mp-1111111,K2LiAuF6,0.4499
mp-1019782,K2LiB(PO4)2,5.3944
mp-557632,K2LiBO3,3.6258
mp-1110902,K2LiBiBr6,2.9174
mp-1110869,K2LiBiCl6,3.6182
mp-1110838,K2LiBiF6,4.8822
mp-1110941,K2LiBiI6,1.9247
mp-1111138,K2LiCeBr6,0.2916000000000003
mp-1111675,K2LiCeCl6,0.3230999999999997
mp-1111674,K2LiCeI6,0.2547999999999999
mp-1111150,K2LiCoF6,1.0789
mp-1111927,K2LiCrF6,2.0603
mp-1207213,K2LiCuF6,0.7518
mp-1111259,K2LiDyCl6,5.0198
mp-1111256,K2LiErCl6,5.0496
mp-770395,K2LiFeO3,2.0402
mp-9703,K2LiGaAs2,0.7546000000000002
mp-1111112,K2LiGaF6,6.1271
mp-1111673,K2LiGdCl6,2.8434
mp-1197982,K2LiIn(MoO4)3,3.7785
mp-505431,K2LiInAs2,0.6193
mp-1111672,K2LiInCl6,2.865
mp-1111671,K2LiInF6,5.2984
mp-1111926,K2LiIrF6,2.0832
mp-1111257,K2LiLaCl6,4.5201
mp-1111126,K2LiLuCl6,5.0952
mp-763834,K2LiMnPCO7,3.2914
mp-1110868,K2LiMoBr6,1.2722
mp-1110855,K2LiMoCl6,1.4862
mp-1110940,K2LiMoI6,0.9740000000000002
mp-695505,K2LiNb6(PO8)3,2.2981
mp-759900,K2LiNbO4,4.0956
mp-1110901,K2LiNdBr6,3.9730000000000003
mp-1110867,K2LiNdCl6,4.8605
mp-1110836,K2LiNdF6,6.379099999999998
mp-1110939,K2LiNdI6,2.9488000000000003
mp-1212200,K2LiP3HO9,3.5153
mp-1200222,K2LiP3O10,0.5983
mp-1110900,K2LiPrBr6,3.9531
mp-1110866,K2LiPrCl6,4.8264
mp-1110938,K2LiPrI6,2.9382
mp-1111665,K2LiRhF6,1.7665
mp-1110899,K2LiSbBr6,2.3188
mp-1110865,K2LiSbCl6,2.9339
mp-1110835,K2LiSbF6,4.1086
mp-1110937,K2LiSbI6,1.7108
mp-1111932,K2LiScCl6,3.7414
mp-1111110,K2LiScF6,6.773300000000001
mp-1111244,K2LiSmCl6,4.9171
mp-680450,K2LiSn4,0.8388999999999998
mp-684817,K2LiTa6(PO8)3,3.0471
mp-1112863,K2LiTaF6,0.3073999999999999
mp-1110864,K2LiTbCl6,4.9973
mp-1212335,K2LiTe2,0.00010000000000021103
mp-1111242,K2LiTlBr6,0.5592999999999999
mp-1111660,K2LiTlCl6,1.5798
mp-1111658,K2LiTlF6,3.5058
mp-1111657,K2LiTmCl6,5.0647
mp-1203349,K2LiV5H10O19,2.4876
mp-566084,K2LiVO4,3.9761
mp-764301,K2LiVPO6,2.3985000000000003
mp-767165,K2LiVS4,1.5185
mp-1110898,K2LiYBr6,4.0360000000000005
mp-1110863,K2LiYCl6,4.9248
mp-1110834,K2LiYF6,6.697100000000002
mp-1110936,K2LiYI6,2.9702
mp-1111986,K2LuAgCl6,3.4502
mp-1112066,K2LuAuCl6,1.9013
mp-1112229,K2LuCuCl6,2.2741
mp-1211957,K2LuF5,6.7859
mp-772832,K2LuPCO7,4.5014
mp-1199299,K2LuSi4O11,0.5418
mp-677250,K2LuZr(PO4)3,4.3151
mp-8127,K2Mg(CO3)2,4.0486
mp-759183,K2Mg(H2N)4,2.268
mp-11643,K2Mg(PSe3)2,1.8098
mp-1212019,K2Mg(SO6)2,0.012000000000000009
mp-1212049,K2Mg2(MoO4)3,3.8833
mp-6299,K2Mg2(SO4)3,5.544899999999998
mp-13613,K2Mg2Be3F12,7.0131999999999985
mp-1226411,K2Mg2Br3(ClO4)3,0.16549999999999998
mp-753662,K2Mg2O3,2.888
mp-1019779,K2Mg2Si2O7,4.9573
mp-758504,K2Mg3P4(H5O6)4,4.986000000000001
mp-1224589,K2Mg3Zn2(Si2O5)6,4.351
mp-1224161,K2Mg5(Si2O5)6,4.8766
mp-1223744,K2Mg5Cu3(AsO4)6,0.15519999999999978
mp-1087476,K2Mg5Sn3,0.06389999999999985
mp-541566,K2MgB12(H2O3)10,5.5415
mp-27207,K2MgCl4,4.7652
mp-25505,K2MgCr2(H2O5)2,2.9021
mp-31212,K2MgF4,6.405900000000001
mp-1224578,K2MgFe(SiO3)8,0.8054999999999999
mp-1212053,K2MgGeO4,3.4730000000000003
mp-24438,K2MgH12(SO7)2,5.196000000000001
mp-1198329,K2MgH12(SeO7)2,3.9248
mp-23956,K2MgH4,3.4385
mp-1223767,K2MgH4(I2O7)2,3.4359
mp-757963,K2MgH8(CO5)2,4.7126
mp-24742,K2MgH8(SO6)2,5.18
mp-1181784,K2MgMo2(H2O5)2,4.3469999999999995
mp-755802,K2MgO2,2.5286
mp-566498,K2MgP2WO10,3.4571
mp-1204159,K2MgP4(HO2)8,5.3598
mp-667292,K2MgSi5O12,4.4841000000000015
mp-15171,K2MgSiO4,4.0026
mp-19459,K2MgV2O7,3.6258
mp-1223759,K2MgZr(MoO4)4,3.0522
mp-1201770,K2Mn(C2O5)2,0.4374
mp-570972,K2Mn(NbCl3)6,1.0316999999999998
mp-542638,K2Mn(PS3)2,1.0923000000000005
mp-863265,K2Mn(PSe3)2,0.7643
mp-1204866,K2Mn(SO6)2,0.00529999999999986
mp-19137,K2Mn(SeO3)2,3.6292
mp-669410,K2Mn(SnSe3)2,1.0268000000000002
mp-651434,K2Mn2(MoO4)3,3.0261
mp-565471,K2Mn2(SO4)3,4.9422000000000015
mp-699937,K2Mn2Be3F12,4.7164
mp-19148,K2Mn2O3,0.4197000000000002
mp-566013,K2Mn2P2O7F2,3.3580000000000005
mp-567173,K2Mn2Zn4Si4O15,1.6655
mp-1195778,K2Mn3(AsO4)3,0.15250000000000008
mp-853173,K2Mn3H10S4O21,4.0642
mp-1197395,K2Mn3H6S3O16,3.2872000000000003
mp-863971,K2Mn3P4(HO3)4,4.2743
mp-762295,K2Mn3V2(HO5)2,1.9512
mp-1195006,K2Mn3V2CO11,2.2279
mp-1224568,K2Mn5Si12O31,0.6341000000000001
mp-27304,K2MnCl6,1.0996
mp-558547,K2MnF4,2.8070000000000004
mp-557397,K2MnF6,3.2698
mp-743731,K2MnH2OF5,1.3384999999999998
mp-42264,K2MnH4(Cl2O)2,3.6477
mp-1223747,K2MnH4(I2O7)2,2.7446
mp-743891,K2MnH4(SO5)2,4.2109
mp-542385,K2MnH4(SeO5)2,2.2545
mp-744285,K2MnH8(SO6)2,4.6359
mp-1194125,K2MnN4,1.2426
mp-772365,K2MnO4,0.6044
mp-566784,K2MnP2O7,4.5901999999999985
mp-850497,K2MnP4(HO2)8,4.2508
mp-769604,K2MnPCO7,1.0999
mp-8713,K2MnS2,0.9732999999999998
mp-18838,K2MnSO4F3,1.5128
mp-8716,K2MnSe2,0.9895
mp-8719,K2MnTe2,0.8458999999999999
mp-1195076,K2MnV14O40,0.04659999999999975
mp-19646,K2MnV2O7,2.41
mp-19228,K2MnV4O12,1.993
mp-1199178,K2Mo(CO4)2,0.9291
mp-558187,K2Mo(I2O7)2,3.0251
mp-1200047,K2Mo(OF)4,0.026399999999999983
mp-1104357,K2Mo(SO)2,2.3152000000000004
mp-566047,K2Mo(SO5)2,2.8796000000000004
mp-1212036,K2Mo2C4O15,0.26159999999999994
mp-744190,K2Mo2H12C4N(OF3)3,0.06259999999999999
mp-1196938,K2Mo2H4C4O15,2.7858
mp-567025,K2Mo2H8O15,2.4415
mp-1182726,K2Mo2O15,0.07589999999999986
mp-1075956,K2Mo2O5,0.4925000000000002
mp-32046,K2Mo2O7,3.4022
mp-1224145,K2Mo2P2O11,1.9215
mp-565247,K2Mo3(AsO5)4,2.6623
mp-560792,K2Mo3O10,3.3299
mp-1199940,K2Mo3O13,1.1853
mp-1227933,K2Mo3SO17,0.625
mp-637680,K2Mo4O13,2.9414
mp-1198246,K2Mo6H2Cl14O,1.4678
mp-565578,K2MoAs2O9,2.7768
mp-565448,K2MoC2O9,2.7212
mp-565454,K2MoCl5O,2.7579
mp-1211983,K2MoH(OF2)2,3.4789000000000003
mp-566838,K2MoH2(CO4)2,3.1134
mp-744317,K2MoH2S2O9,2.9941000000000004
mp-1212078,K2MoHO3F4,2.5502
mp-1211865,K2MoHOF5,3.2848
mp-18914,K2MoO4,4.3131
mp-565371,K2MoO8,2.0176
mp-558949,K2MoP2O9,3.0344
mp-1193903,K2MoS3O,1.9355
mp-17980,K2MoS4,1.4127999999999998
mp-1181610,K2MoSe2O11,0.5447
mp-566249,K2MoSeO6,3.4942
mp-559513,K2NClO3,4.0449
mp-558293,K2Na(B3O5)3,5.3009
mp-866641,K2Na(H2N)3,2.11
mp-1223796,K2Na(SbO3)3,1.8960000000000004
mp-680381,K2Na2Gd4Nb2O13,3.1705
mp-559878,K2Na2IrO4,0.33850000000000025
mp-1076891,K2Na2Mo3WO10,0.4965000000000002
mp-1099722,K2Na2MoW3O10,0.4777999999999998
mp-1076206,K2Na2NbW3O10,0.12039999999999962
mp-1201519,K2Na2Nd4Nb2O13,3.7587
mp-1211978,K2Na2NdF7,6.1098
mp-698134,K2Na2Sb2H6O3F10,4.5674
mp-1200960,K2Na2Sm4Nb2O13,3.7576
mp-1198935,K2Na2Sm4Ta2O13,3.9708
mp-504962,K2Na3InO4,1.92
mp-1019781,K2Na3P3O10,4.3865
mp-541694,K2Na3SiP3,0.8900999999999999
mp-17375,K2Na3TlO4,1.3295999999999997
mp-14324,K2Na4Be2O5,2.4329
mp-1181756,K2Na4Ca5(Si6O17)2,0.002700000000000036
mp-504963,K2Na4Co2O5,1.2404
mp-1211809,K2Na4Fe2O5,1.1997
mp-554107,K2Na4Ge2O7,2.9946
mp-1224604,K2Na4Li2Ti4Mn3Fe(SiO3)16,1.7505000000000002
mp-697305,K2Na5Al7Si5O24,2.3028
mp-1076545,K2Na6V5Mo3O20,0.6291000000000002
mp-1196368,K2Na6Zn4Si14O45,0.302
mp-6855,K2NaAg3(CN)6,2.7261
mp-560176,K2NaAl3F12,6.8339
mp-9069,K2NaAlAs2,1.026
mp-1111652,K2NaAlCl6,4.1435
mp-6586,K2NaAlF6,6.8580000000000005
mp-24412,K2NaAlH6,2.3449
mp-9068,K2NaAlP2,1.4918
mp-34127,K2NaAs,0.15169999999999995
mp-1111240,K2NaAsBr6,2.4748
mp-1111651,K2NaAsCl6,3.0875
mp-1111108,K2NaAsF6,4.5049
mp-1111920,K2NaAuF6,0.5919
mp-567836,K2NaBP2,1.7743
mp-1110897,K2NaBiBr6,3.0622
mp-1110896,K2NaBiCl6,3.7427
mp-1110833,K2NaBiF6,4.8129
mp-1110965,K2NaBiI6,2.1103
mp-720410,K2NaCa2TiSi7HO20,3.4502000000000006
mp-1095721,K2NaCd,0.4192
mp-1110935,K2NaCeBr6,0.29610000000000003
mp-1110895,K2NaCeCl6,0.3277999999999999
mp-1110964,K2NaCeI6,0.2599
mp-1223818,K2NaCl3,4.936
mp-567824,K2NaCo(CN)6,4.3382000000000005
mp-1211916,K2NaCo(NO2)6,2.432
mp-1206266,K2NaCrCl6,1.6286
mp-554252,K2NaCrF6,3.9821
mp-13797,K2NaCuF6,0.9263
mp-1111648,K2NaDyCl6,4.8121
mp-1111647,K2NaErCl6,4.834
mp-558674,K2NaFeF6,4.0922
mp-565329,K2NaFeO3,2.1975
mp-9676,K2NaGaAs2,0.8053999999999999
mp-1111641,K2NaGaBr6,1.4571999999999998
mp-1111127,K2NaGaCl6,2.7852
mp-1111106,K2NaGaF6,5.9471
mp-9666,K2NaGaP2,1.5764999999999998
mp-1111234,K2NaGdCl6,2.9756
mp-695963,K2NaH10IO10,2.5046
mp-505771,K2NaH5(CO4)2,4.3382000000000005
mp-21510,K2NaInAs2,0.6218999999999997
mp-1111640,K2NaInBr6,1.8451
mp-1110862,K2NaInCl6,3.0788
mp-6686,K2NaInF6,5.2445
mp-1111231,K2NaInI6,0.6835
mp-21511,K2NaInP2,1.0504000000000002
mp-505767,K2NaInSb2,0.5808
mp-1111884,K2NaIrF6,2.1234
mp-1111139,K2NaLaCl6,4.6627
mp-1111639,K2NaLuCl6,4.8626000000000005
mp-1079339,K2NaMnF6,1.5449
mp-616689,K2NaMnO4,1.6992
mp-706271,K2NaMo(OF)3,3.0415
mp-1110894,K2NaMoBr6,1.3648000000000002
mp-1110861,K2NaMoCl6,1.5717
mp-556487,K2NaMoF6,3.8931
mp-1110934,K2NaMoI6,1.0859
mp-1173071,K2NaNb(OF2)2,2.4143
mp-743972,K2NaNb2Fe7Si8H4O31,0.11190000000000032
mp-1224011,K2NaNb3O9,1.9286
mp-1110933,K2NaNdBr6,3.8831
mp-1110893,K2NaNdCl6,4.6993
mp-1110831,K2NaNdF6,5.9917
mp-1110963,K2NaNdI6,3.1158
mp-1110932,K2NaPrBr6,3.8707
mp-1110892,K2NaPrCl6,4.6728
mp-1110830,K2NaPrF6,5.948499999999999
mp-1110962,K2NaPrI6,3.1022000000000003
mp-14039,K2NaRhF6,1.9994
mp-560773,K2NaS2ClO6,5.092
mp-1110891,K2NaSbBr6,2.4686000000000003
mp-1110890,K2NaSbCl6,3.056
mp-1110829,K2NaSbF6,4.0009
mp-1110961,K2NaSbI6,1.8858
mp-1111649,K2NaScBr6,3.0991
mp-1111621,K2NaScCl6,3.9028
mp-6058,K2NaScF6,6.757299999999999
mp-1111618,K2NaScI6,2.1954
mp-1111223,K2NaSmCl6,4.7396
mp-1111622,K2NaTbCl6,4.7982
mp-42190,K2NaTiOF5,3.9586
mp-1111915,K2NaTlBr6,0.8496
mp-1111616,K2NaTlCl6,1.8417
mp-13798,K2NaTlF6,3.6205
mp-1111222,K2NaTlI6,0.07489999999999998
mp-560950,K2NaTlO3,1.255
mp-1111615,K2NaTmCl6,4.8445
mp-604440,K2NaV5H10O19,2.4849
mp-690635,K2NaVOF5,2.7864
mp-1110888,K2NaYBr6,3.9413
mp-1110860,K2NaYCl6,4.8156
mp-13799,K2NaYF6,6.2547
mp-1110826,K2NaYI6,3.1299
mp-1019787,K2NaZn(BO2)5,4.2332
mp-766427,K2NaZn2H5(C2O7)2,4.1163
mp-1224597,K2Nb2As2O11,2.9929
mp-559790,K2Nb3Cl7O5,2.2949
mp-1194979,K2Nb3H11C5(Cl3O4)2,1.1179999999999999
mp-504983,K2Nb4Fe2O13,1.4034
mp-686747,K2Nb6Ag(PO8)3,1.7979
mp-15214,K2NbAgS4,2.1653
mp-1112494,K2NbAuF6,0.14350000000000002
mp-9763,K2NbCuS4,1.9582
mp-9003,K2NbCuSe4,1.5915
mp-4758,K2NbF7,4.5284
mp-1223800,K2NbO3F,1.5653
mp-1180911,K2NbO3F5,0.8905
mp-574909,K2NbS7,1.3203999999999998
mp-1224543,K2NbV(PO5)2,2.0346
mp-559732,K2Nd(PO3)5,5.2483
mp-555717,K2Nd2IrO7,0.2898999999999998
mp-1110916,K2NdAgBr6,2.9991000000000003
mp-1110915,K2NdAgCl6,3.3232
mp-1110850,K2NdAgF6,2.43
mp-1110950,K2NdAgI6,2.5576
mp-1112422,K2NdAuCl6,2.1214000000000004
mp-1211863,K2NdBr5,3.9624
mp-1211903,K2NdCl5,4.745
mp-1110908,K2NdCuBr6,2.0705
mp-1112227,K2NdCuCl6,2.1889
mp-1110945,K2NdCuI6,1.8245
mp-1211860,K2NdF5,6.6726
mp-1211886,K2NdI5,3.0195
mp-1195884,K2NdN5O17,0.4050999999999999
mp-1211895,K2NdNb5O15,1.9128
mp-16690,K2NdP2S7,2.3533
mp-772835,K2NdPCO7,4.3287
mp-7827,K2Ni(CN)4,3.0257
mp-1212282,K2Ni(CO5)2,0.4699
mp-565389,K2Ni(MoO4)2,3.4739
mp-565622,K2Ni(NO3)4,2.9637
mp-565204,K2Ni2(MoO4)3,3.2782
mp-17228,K2Ni3S4,0.7067999999999999
mp-1188089,K2Ni3Se4,0.4499999999999997
mp-583356,K2Ni4P4O15,3.4138
mp-9673,K2NiAs2,0.08009999999999984
mp-1211754,K2NiC4(SO)4,1.7389
mp-556546,K2NiF4,4.7252
mp-605034,K2NiF6,2.3603
mp-567119,K2NiH12(C2O7)2,3.3201
mp-25778,K2NiH12(SO7)2,4.8704
mp-1202063,K2NiH12(SeO7)2,3.5649
mp-25714,K2NiH8(CO5)2,4.149
mp-9672,K2NiP2,0.6395
mp-579930,K2NiP2O7,4.1816
mp-566161,K2NiP2WO10,3.4914
mp-764404,K2NiP4(HO2)8,4.9861
mp-1025162,K2NpO4,0.3700000000000001
mp-971,K2O,1.7072
mp-2672,K2O2,2.3447
mp-23097,K2Os(Cl2O)2,1.7286
mp-556047,K2OsCBr5O,0.5206
mp-556774,K2OsN3Cl3O5,2.2837
mp-640057,K2OsNCl5,1.6138000000000003
mp-762088,K2OsO5,1.6619
mp-721217,K2P2H2O7,5.0961
mp-558480,K2P2O5F2,5.0435
mp-7505,K2P2Pd,1.0789
mp-1224154,K2P2PdO7,1.2752
mp-1201278,K2P2PdS6,1.2152999999999998
mp-565694,K2P2WO9,4.0835
mp-569857,K2P3,1.1204999999999998
mp-721562,K2P3H5O11,5.0482
mp-707096,K2P3H7O9,6.462000000000001
mp-667288,K2P4PbO12,5.1026
mp-1181161,K2P4PtClO11,0.031200000000000006
mp-9687,K2PAu,0.9504
mp-9509,K2PAuS4,1.5590000000000002
mp-706521,K2PH3O5,4.1031
mp-1224943,K2PH3SO8,5.4266
mp-1211877,K2PH3SeO8,4.0767000000000015
mp-1199891,K2PH4S3O2,2.8518
mp-733468,K2PHO4,4.5325
mp-6441,K2PO3F,4.4626
mp-555840,K2PO4,3.2014
mp-1202353,K2PS3,2.9121
mp-31314,K2PSe3,1.9739
mp-542445,K2PaF7,3.9803
mp-21099,K2Pb(SO4)2,4.436299999999999
mp-20694,K2Pb2O3,1.6906999999999996
mp-1194624,K2Pb3C3O9F2,3.3002
mp-1105991,K2PbBr4O,0.7369
mp-1211440,K2PbCl6,1.4363
mp-556517,K2PbO2,1.9201
mp-561277,K2PbO3,1.1332
mp-1181380,K2PbO6,0.07490000000000008
mp-11893,K2Pd(CN)4,3.8847
mp-1181007,K2Pd(CO3)4,0.7434
mp-14131,K2Pd(NO2)4,2.0739
mp-556518,K2Pd(NO3)4,1.9068
mp-1195978,K2Pd(S2O7)3,1.3341
mp-1203991,K2Pd(S4O13)2,1.4308
mp-9910,K2Pd3S4,0.4969000000000001
mp-14339,K2Pd3Se4,0.7909000000000002
mp-1223861,K2PdBr3Cl,1.4309
mp-27138,K2PdBr4,1.2049
mp-1205761,K2PdBr6,0.7564
mp-1223847,K2PdBrCl3,1.5295999999999998
mp-1068977,K2PdC2,1.4423
mp-650023,K2PdC4(SN)4,1.5867
mp-22956,K2PdCl4,1.4172
mp-23067,K2PdCl6,1.2027
mp-28163,K2PdF4,1.8732
mp-7979,K2PdF6,2.0399000000000003
mp-1180897,K2PdN2(ClO2)2,1.9971
mp-540584,K2PdO2,1.3697
mp-1211762,K2PdO4,0.4503
mp-1068941,K2PdS2,1.2448
mp-1069706,K2PdSe2,0.8458000000000001
mp-707986,K2Pr2H3(S2O9)2,0.1872
mp-558801,K2Pr4Cl9O2,0.4474999999999998
mp-1110914,K2PrAgBr6,2.9851
mp-1110913,K2PrAgCl6,3.2913
mp-1110849,K2PrAgF6,2.3844
mp-1110966,K2PrAgI6,2.5488
mp-1112421,K2PrAuCl6,2.1308
mp-28276,K2PrBr5,4.007
mp-569967,K2PrCl5,4.8153000000000015
mp-1110907,K2PrCuBr6,2.0495
mp-1112220,K2PrCuCl6,2.1447000000000003
mp-1110944,K2PrCuI6,1.8073
mp-541987,K2PrH4N5O17,3.4925
mp-28277,K2PrI5,3.031
mp-1196176,K2PrN5O17,0.3801000000000001
mp-1211647,K2PrNb5O15,1.9272
mp-772765,K2PrPCO7,4.2654
mp-556867,K2PrZr(PO4)3,4.4301
mp-1062676,K2Pt,1.3146
mp-637196,K2Pt(CN)4,2.1357
mp-1181128,K2Pt(I2O)2,1.1749000000000005
mp-1189013,K2Pt(N2O5)2,0.5729
mp-6592,K2Pt(NO2)4,2.1194
mp-27243,K2PtBr4,1.4677000000000002
mp-27691,K2PtBr6,1.1688
mp-976876,K2PtC2,0.9817
mp-1191429,K2PtC2Cl2O5,0.4113
mp-568299,K2PtC4(BrN2)2,1.9429
mp-570105,K2PtC4(IN2)2,1.3471
mp-1193616,K2PtC4(N2Cl)2,2.4732
mp-616240,K2PtC4(SN)4,0.10299999999999998
mp-22934,K2PtCl4,1.7942
mp-23513,K2PtCl6,1.8478
mp-3821,K2PtF6,2.5717
mp-28247,K2PtI6,0.8659999999999999
mp-558532,K2PtN3(ClO2)3,2.7094
mp-669540,K2PtN4(ClO4)2,2.079
mp-1080119,K2PtO6,0.03520000000000012
mp-652663,K2PtS15,1.9165
mp-7928,K2PtS2,1.2262
mp-1079869,K2PtS6,0.09109999999999996
mp-8621,K2PtSe2,0.9345
mp-29334,K2PuCl5,0.08990000000000009
mp-505397,K2PuCl6,0.34739999999999993
mp-650124,K2Rb2Re6S13,1.3711000000000002
mp-1211726,K2Rb4Fe2O5,1.3477
mp-1111617,K2RbAlBr6,3.2213000000000003
mp-1111613,K2RbAlCl6,4.3421
mp-1111386,K2RbAlF6,5.9458
mp-1111610,K2RbAlI6,1.9161
mp-1097274,K2RbAs,0.04739999999999967
mp-1111609,K2RbAsBr6,2.9037
mp-1111770,K2RbAsCl6,3.4023
mp-1111443,K2RbAsF6,3.8968
mp-1111606,K2RbAsI6,2.1734
mp-1111136,K2RbAuCl6,0.2629
mp-1111442,K2RbAuF6,0.7160000000000001
mp-1184754,K2RbBi,0.135
mp-1110760,K2RbBiBr6,3.4181
mp-1110759,K2RbBiCl6,3.8921
mp-1110675,K2RbBiF6,4.1764
mp-1110783,K2RbBiI6,2.6959
mp-621964,K2RbBiSe3,2.1256
mp-1223949,K2RbCO3F,3.666
mp-1110782,K2RbCeBr6,0.3159000000000001
mp-1110758,K2RbCeCl6,0.34700000000000003
mp-1110781,K2RbCeI6,0.2793999999999999
mp-1111215,K2RbDyCl6,4.4164
mp-1211702,K2RbDyV2O8,3.4213
mp-1111216,K2RbErCl6,4.4267
mp-1211720,K2RbErV2O8,3.4064
mp-1111213,K2RbGaBr6,2.191
mp-1111600,K2RbGaCl6,3.4330000000000003
mp-1111144,K2RbGaF6,5.5905000000000005
mp-1111285,K2RbGaI6,0.9854
mp-1111214,K2RbGdCl6,3.1289
mp-25143,K2RbGdV2O8,3.3852
mp-1211709,K2RbHoV2O8,3.3793
mp-1111211,K2RbInBr6,2.5257
mp-1111212,K2RbInCl6,3.6128
mp-1111441,K2RbInF6,4.9697
mp-1111440,K2RbIrF6,2.1696
mp-1211738,K2RbLaV2O8,3.4963
mp-1111209,K2RbLuCl6,4.4361
mp-1211699,K2RbLuV2O8,3.3953
mp-558227,K2RbMn2F7,2.9214
mp-1110757,K2RbMoBr6,1.5723
mp-1110717,K2RbMoCl6,1.6363
mp-1110780,K2RbMoI6,1.4308
mp-1096543,K2RbNa,0.2910000000000004
mp-1110779,K2RbNdBr6,3.6907
mp-1110756,K2RbNdCl6,4.3591
mp-1110673,K2RbNdF6,5.1535
mp-1110778,K2RbNdI6,3.1287000000000003
mp-1211725,K2RbNdV2O8,3.4285
mp-14334,K2RbPdF5,2.2313
mp-1110777,K2RbPrBr6,3.6885
mp-1110755,K2RbPrCl6,4.3509
mp-1110672,K2RbPrF6,5.0906
mp-1110776,K2RbPrI6,3.1256000000000004
mp-1211736,K2RbPrV2O8,3.4404
mp-1111432,K2RbRhF6,2.0452
mp-1110754,K2RbSbBr6,2.8386000000000005
mp-1110716,K2RbSbCl6,3.3087
mp-1110671,K2RbSbF6,3.4772
mp-1110775,K2RbSbI6,2.3768
mp-1111597,K2RbScBr6,3.2699
mp-1111207,K2RbScCl6,4.0703
mp-1111114,K2RbScF6,5.8456
mp-1211745,K2RbScV2O8,3.1251
mp-1211767,K2RbSmV2O8,3.4083
mp-1111205,K2RbTbCl6,4.4079
mp-19428,K2RbTbV2O8,3.3999
mp-1111203,K2RbTlBr6,1.5429
mp-1111582,K2RbTlF6,3.6132
mp-1111204,K2RbTmCl6,4.4297
mp-1211717,K2RbTmV2O8,3.3997
mp-1110752,K2RbYBr6,3.71
mp-1110714,K2RbYCl6,4.4186
mp-1110670,K2RbYF6,5.525
mp-1110773,K2RbYI6,3.1274
mp-1211701,K2RbYV2O8,3.4152
mp-680168,K2Re3C2Se5N2,1.2751
mp-39938,K2Re3CS5N,1.3673999999999995
mp-1200454,K2Re3Se4O7,0.4406999999999999
mp-1213559,K2Re3TeC3(SN)3,2.0933
mp-23021,K2ReBr6,0.97
mp-556347,K2ReCl5O,0.6691
mp-22947,K2ReCl6,1.0776
mp-7824,K2ReF6,1.6997
mp-27595,K2ReF8,1.0682
mp-30216,K2ReI6,0.8526
mp-1112258,K2RhAuF6,0.5952999999999999
mp-1197421,K2Ru(NO2)5,0.1543
mp-560144,K2RuBr5NO,1.6301
mp-557702,K2RuI5NO,1.3952
mp-560322,K2RuN3Cl3O5,2.0797
mp-560966,K2RuNCl5O,1.7987999999999995
mp-17789,K2RuO4,0.5193
mp-1201514,K2RuO5,0.9617
mp-1191936,K2S2NO6,0.9018
mp-555388,K2S2NO7,1.9921
mp-1019783,K2S2O3,3.7496
mp-4264,K2S2O5,3.1804
mp-562102,K2S2O7,5.2193
mp-7667,K2S3,1.2855
mp-17146,K2S5,1.9299
mp-27792,K2S5O16,4.5508
mp-1196685,K2SIO7,0.01530000000000001
mp-560434,K2SN2O5,3.2989
mp-8483,K2SO3,4.9148999999999985
mp-4529,K2SO4,5.2088
mp-557470,K2Sb2S(O2F3)2,4.3549
mp-27140,K2Sb4O11,1.8457
mp-27749,K2Sb4S7,1.5437
mp-1194325,K2Sb4S7O,0.03669999999999973
mp-863757,K2SbAu,1.0023000000000002
mp-1112067,K2SbAuCl6,0.2250000000000001
mp-1111960,K2SbAuF6,0.6892
mp-27241,K2SbCl5,3.2507
mp-1205394,K2SbF5,4.66
mp-756981,K2SbPCO7,3.8333
mp-560240,K2SbPO6,2.5161
mp-554643,K2SbSO4F3,4.578
mp-1225084,K2Sc2Mo(PO6)2,3.051
mp-1224963,K2Sc2P2WO12,3.6889999999999996
mp-1111998,K2ScAgBr6,2.7774
mp-1112448,K2ScAgCl6,3.2128
mp-1112275,K2ScAgF6,3.0265
mp-1112086,K2ScAgI6,2.0819
mp-1111993,K2ScAuBr6,1.5992
mp-1112065,K2ScAuCl6,1.9206
mp-1112256,K2ScAuF6,1.5725
mp-1112062,K2ScAuI6,1.0656
mp-1112159,K2ScCuCl6,1.8614
mp-1112245,K2ScCuF6,1.2237
mp-1112015,K2ScInBr6,2.149
mp-1112180,K2ScInCl6,2.4813
mp-1112179,K2ScInF6,3.5397
mp-1112016,K2ScInI6,1.843
mp-1195538,K2ScP2Se7,1.709
mp-772763,K2ScPCO7,4.3744
mp-1203125,K2ScSi2O7,0.5108000000000001
mp-557777,K2ScSi4O10F,4.7453
mp-1212024,K2ScSn(AsO4)3,2.5632