task_id,composition,band_gap
mp-17297,Na2GeF6,5.7858
mp-707055,Na2GeH12S2O7,3.0947
mp-1210879,Na2GeH14S3O7,2.7358
mp-722266,Na2GeH16Se3O8,2.1426
mp-1029851,Na2GeN2,1.5018999999999996
mp-5784,Na2GeO3,2.9873
mp-1191980,Na2GeO9,0.4536
mp-4068,Na2GeS3,2.4515
mp-28278,Na2GeSe3,1.6128
mp-10340,Na2GeTeO6,2.6512
mp-24029,Na2H10SO5,3.3539
mp-1198167,Na2H14CO10,4.1517
mp-505185,Na2H16O9,4.5337999999999985
mp-1180434,Na2H18SO9,3.6919
mp-699482,Na2H20CO13,4.2389
mp-721312,Na2H2CO4,4.1589
mp-1211096,Na2H2WO4,2.1056
mp-1001112,Na2H3CO6,3.7708
mp-707470,Na2H4(SO4)3,5.4936
mp-643260,Na2H4Pd,2.2472000000000003
mp-697096,Na2H4Pt,2.1056
mp-706285,Na2H4PtC4Br2(N2O)2,1.7953
mp-695945,Na2H4RuC5(N2O)3,2.3134
mp-1203800,Na2H4WO6,4.7308
mp-707508,Na2H5RuN5O12,2.0897
mp-699317,Na2H6C4O7,2.7221
mp-690785,Na2H6Pt,3.6147
mp-720849,Na2H6PtC4N4O3,2.4515
mp-632760,Na2H6PtO6,2.6037
mp-37458,Na2HF4,1.2904
mp-643896,Na2Hf(HO)6,4.3873
mp-1197481,Na2Hf(SO5)3,0.1959
mp-865500,Na2Hf2O5,1.9558
mp-505121,Na2Hg3S4,1.3273
mp-1093583,Na2HgBi,0.006399999999999739
mp-4961,Na2HgO2,1.6474000000000002
mp-1221547,Na2HgP6(NO9)2,0.016500000000000015
mp-28858,Na2HgS2,2.1799
mp-1201446,Na2HgS2O7,0.12120000000000004
mp-1093963,Na2HgSb,0.005300000000000082
mp-1096385,Na2HgTe,0.06409999999999982
mp-1194989,Na2Ho2B2TeO10,2.9261
mp-565656,Na2HoMoPO8,4.1948
mp-1210526,Na2HoNb5O15,1.9643
mp-768129,Na2HoPCO7,4.5316
mp-1200859,Na2HoPWO8,4.7786
mp-1210516,Na2HoTa5O15,2.6740000000000004
mp-1190260,Na2IO6,0.1876
mp-1221585,Na2In2Mo5O16,1.5561000000000005
mp-762594,Na2In2P4H6O17,4.0732
mp-541692,Na2In2Sb3,0.6920999999999999
mp-1111184,Na2InAgBr6,0.1893
mp-1111534,Na2InAgCl6,0.9839
mp-1111326,Na2InAgF6,1.0738
mp-1111075,Na2InAsF6,1.6105
mp-1096344,Na2InBi,0.05640000000000001
mp-1111022,Na2InGaF6,1.8653
mp-557278,Na2InNiF7,4.1625
mp-767521,Na2InPCO7,2.7683
mp-1204505,Na2InSiO5,0.4377
mp-1111304,Na2IrAuF6,0.2709999999999999
mp-1221367,Na2La2PtO6,1.9668
mp-6144,Na2La2Ti3O10,2.0914
mp-1173810,Na2La7Ti8Mn2O30,0.13040000000000074
mp-1221390,Na2LaCeTi4O12,0.05079999999999973
mp-1110995,Na2LaCuCl6,1.2645
mp-1200522,Na2LaH2C5O11,3.3948
mp-767533,Na2LaPCO7,4.0871
mp-640915,Na2LaPS2O7,3.633900000000001
mp-1203278,Na2LaSiO5,0.4878
mp-604147,Na2Li(H2N)3,2.1905
mp-773956,Na2Li(NiO2)3,0.9474
mp-1195224,Na2Li18Ge17,0.14559999999999995
mp-43030,Na2Li2Al3Si3ClO12,4.9583
mp-763254,Na2Li2CoO4,1.2411
mp-25538,Na2Li2FeO4,0.28979999999999995
mp-1204808,Na2Li2NiP6(H4O5)6,4.9145
mp-853239,Na2Li2V3P2O13,1.7887000000000002
mp-540990,Na2Li3CoO4,1.4597
mp-560846,Na2Li3FeO4,2.9156
mp-540945,Na2Li3GaO4,3.2395
mp-769078,Na2Li3Ti3Al(PO4)6,0.11960000000000015
mp-765657,Na2Li4Co2C4SO16,2.5477
mp-765654,Na2Li4Mn2C4SO16,3.8861
mp-765655,Na2Li4Ni2C4SO16,3.5958
mp-694958,Na2Li5Al7Si29O72,3.24
mp-565960,Na2Li8U11(WO22)2,1.2792000000000003
mp-1111056,Na2LiAlF6,6.5459999999999985
mp-24413,Na2LiAlH6,2.8483
mp-9719,Na2LiAlP2,1.8853000000000004
mp-556641,Na2LiAlP2H2O9,5.1375
mp-1110998,Na2LiAsF6,4.3114
mp-1110991,Na2LiAuF6,0.4175
mp-1020146,Na2LiB5(PO7)2,5.4471
mp-12240,Na2LiBe2F7,6.9483
mp-1111739,Na2LiBiBr6,2.9192
mp-1111659,Na2LiBiCl6,3.5061
mp-1110905,Na2LiBiF6,4.3529
mp-1111803,Na2LiBiI6,1.9141
mp-763838,Na2LiCaVP2O9,1.7406
mp-776424,Na2LiCuP2O7,1.1706999999999996
mp-776432,Na2LiCuPCO7,0.2341999999999997
mp-1113839,Na2LiDyCl6,3.9711
mp-1113921,Na2LiErCl6,3.9977
mp-19616,Na2LiFe(Si2O5)3,3.3919
mp-773690,Na2LiFePCO7,3.5714999999999995
mp-9722,Na2LiGaAs2,0.6841999999999997
mp-1114242,Na2LiGaF6,5.7453
mp-1113919,Na2LiGdCl6,2.8701000000000003
mp-1111477,Na2LiInCl6,2.9328
mp-1110904,Na2LiInF6,4.8635
mp-1114239,Na2LiIrF6,2.1677
mp-676447,Na2LiLa3Ti6O18,1.7769000000000004
mp-1113840,Na2LiLaCl6,3.8124
mp-1113316,Na2LiLuCl6,4.0318
mp-765014,Na2LiMn(PO3)5,3.6781000000000006
mp-1176546,Na2LiMnPCO7,3.5342
mp-989504,Na2LiNF6,2.7239
mp-1113739,Na2LiNdCl6,3.8583
mp-740710,Na2LiP3H8O13,5.0012
mp-1113740,Na2LiPrCl6,3.8321
mp-1114234,Na2LiRhF6,1.8438
mp-1111476,Na2LiSbCl6,2.9225000000000003
mp-1110657,Na2LiSbF6,3.6063
mp-1111475,Na2LiScCl6,3.7427
mp-1113900,Na2LiScF6,6.059800000000001
mp-1113741,Na2LiSmCl6,3.9003
mp-1113318,Na2LiTbCl6,3.9571
mp-769074,Na2LiTi3Al(PO4)6,2.5088
mp-1111738,Na2LiTlBr6,0.5730999999999999
mp-1111474,Na2LiTlCl6,1.6283
mp-1110629,Na2LiTlF6,3.372
mp-1113284,Na2LiTmCl6,4.0096
mp-1203476,Na2LiV5H18O23,2.4667000000000003
mp-763825,Na2LiVPO6,2.343
mp-14030,Na2LiY(Si2O5)3,4.6025
mp-1111737,Na2LiYBr6,3.1247
mp-1111473,Na2LiYCl6,3.9688
mp-1110628,Na2LiYF6,5.4375
mp-1195028,Na2Lu2B2TeO10,2.9593
mp-1204668,Na2Lu3Te4(IO4)3,2.3139
mp-1111531,Na2LuAgCl6,2.8698
mp-1194897,Na2LuC2O6F,4.7392
mp-1110994,Na2LuCuCl6,1.6528999999999998
mp-567034,Na2LuMoPO8,4.1749
mp-767562,Na2LuPCO7,4.5575
mp-1197089,Na2LuPWO8,4.7776000000000005
mp-6026,Na2Mg(CO3)2,4.4192
mp-1201755,Na2Mg(SO6)2,0.08430000000000004
mp-12187,Na2Mg2(Si2O5)3,4.4102999999999986
mp-1206939,Na2Mg2As,0.04980000000000007
mp-1221456,Na2Mg2Fe2Se3(SO8)3,2.2755
mp-1180690,Na2Mg2NiH6,1.7421000000000002
mp-1020147,Na2Mg2P3NO9,5.0785
mp-1221800,Na2Mg3(MoO4)4,3.641
mp-1202247,Na2Mg3H10(SO6)3,4.7935
mp-1221527,Na2Mg3Zn2(Si2O5)6,4.1796000000000015
mp-561486,Na2Mg5(PO4)4,4.9369
mp-1221511,Na2Mg5(Si2O5)6,4.5962999999999985
mp-1202299,Na2Mg5Mn11Si12(AsO25)2,0.0242
mp-6319,Na2MgAlF7,6.656000000000001
mp-743656,Na2MgB12(H4O7)4,3.2228
mp-1204556,Na2MgB4(H5N)4,4.9962
mp-28657,Na2MgCl4,4.9057
mp-1210432,Na2MgCrF7,4.0181
mp-1210561,Na2MgFe2(PO4)3,0.3396999999999997
mp-1210436,Na2MgFeF7,3.9121
mp-1210433,Na2MgGaF7,5.7506
mp-1210431,Na2MgGeO4,3.2596
mp-1199634,Na2MgH32(SO12)2,5.0659
mp-722860,Na2MgH4(SO4)2,5.1275
mp-559135,Na2MgH8(SO6)2,5.2316
mp-10837,Na2MgInF7,4.9737
mp-1197995,Na2MgP4(H2O3)6,5.2238
mp-11165,Na2MgPO4F,4.7360000000000015
mp-1078372,Na2MgPb,0.014800000000000146
mp-1210466,Na2MgScF7,6.2361
mp-560603,Na2MgSi5O12,4.8278
mp-6406,Na2MgSiO4,3.7654
mp-1210449,Na2MgVF7,2.4351000000000003
mp-1221351,Na2MgZn5(AsO4)6,0.019299999999999984
mp-567904,Na2Mn(PO3)5,1.3331
mp-769846,Na2Mn(SO4)2,4.376
mp-1221423,Na2Mn(SiO3)2,2.411
mp-1210502,Na2Mn2Cd(PO4)3,0.17300000000000004
mp-1173719,Na2Mn2Fe(PO4)3,1.1257
mp-566788,Na2Mn2O3,0.28820000000000023
mp-28079,Na2Mn2S3,0.4915000000000002
mp-29745,Na2Mn2Se3,0.4792000000000001
mp-555689,Na2Mn2Si2O7,2.3448
mp-1210501,Na2Mn3(PO4)3,0.2140000000000004
mp-27126,Na2Mn3Cl8,1.9223
mp-19080,Na2Mn3O7,1.4056999999999995
mp-1197360,Na2Mn3P2H2(C4O9)2,0.6183000000000001
mp-773119,Na2MnAsCO7,0.6423
mp-771501,Na2MnBAsO7,0.3288
mp-770025,Na2MnBPO7,0.2533
mp-771504,Na2MnBSO7,1.368
mp-772331,Na2MnCSO7,3.2055
mp-1173728,Na2MnCdFe(PO4)3,1.2966000000000002
mp-27280,Na2MnCl4,2.0864000000000003
mp-560579,Na2MnCrF7,2.4625
mp-555618,Na2MnF5,1.693
mp-1221376,Na2MnFeF7,1.459
mp-554473,Na2MnGaF7,2.7127
mp-1180382,Na2MnInSi2O9,0.05789999999999995
mp-565246,Na2MnO2,0.2702
mp-769949,Na2MnO3,1.5223
mp-566311,Na2MnP2O7,3.9203
mp-780530,Na2MnPCO7,0.6287
mp-1191084,Na2MnPHO3F4,3.2054
mp-771406,Na2MnSiCO7,1.0701
mp-1221472,Na2MnVF7,2.0394
mp-603592,Na2Mo(H2O3)2,3.3666
mp-1202861,Na2Mo(H2O3)4,1.9244
mp-1210611,Na2Mo(HO2)2,2.0444
mp-1099875,Na2Mo2O5,0.5543999999999998
mp-25774,Na2Mo2O7,3.212
mp-683943,Na2MoC3SeN3,1.6661
mp-1201525,Na2MoH2O3F4,3.6282
mp-18852,Na2MoO4,4.3939
mp-1199694,Na2MoO6,0.8211999999999999
mp-567030,Na2MoSeO6,3.6489
mp-1173776,Na2N2O3,0.44569999999999976
mp-690200,Na2Nb18Tl7(PO8)9,2.2223
mp-1223113,Na2Nb2C8S4N3ClO19,0.405
mp-1221360,Na2Nb2W2O13,0.2384
mp-1202153,Na2Nb4O11,2.6615
mp-559968,Na2NbAsO6,3.1214
mp-9753,Na2NbF6,0.2885
mp-1210464,Na2Nd2B2O7,4.1585
mp-1221329,Na2Nd2PtO6,1.9357
mp-6119,Na2Nd2Ti3O10,2.0455
mp-1221346,Na2Nd4NCl9O,3.814
mp-1113374,Na2NdCuCl6,1.3084
mp-1194762,Na2NdGeO5,0.5194999999999999
mp-1205256,Na2NdN5O16,0.6259
mp-767606,Na2NdPCO7,4.3794
mp-722891,Na2Ni(H7N3)2,1.0626
mp-1199950,Na2Ni(PO5)4,0.0060000000000000045
mp-704915,Na2Ni2(B4O7)3,3.763900000000001
mp-779951,Na2Ni2O3,1.2372
mp-778713,Na2Ni2O5,1.036
mp-764097,Na2Ni3(P2O7)2,3.7435
mp-765675,Na2Ni3O5,0.16169999999999973
mp-777116,Na2Ni3O7,1.1134000000000002
mp-773533,Na2NiAsCO7,1.1143
mp-770108,Na2NiCSO7,2.9745
mp-542864,Na2NiH12(SO7)2,4.7677999999999985
mp-1210852,Na2NiH20C12(N2O3)6,3.2687
mp-744567,Na2NiH6C4N4O3,3.4164000000000003
mp-542790,Na2NiH8(SO6)2,4.5756999999999985
mp-1198211,Na2NiMo6H26(NO15)2,2.8012
mp-779840,Na2NiO2,2.8401
mp-849359,Na2NiO3,0.5990000000000002
mp-775619,Na2NiPCO7,0.048599999999999983
mp-1203157,Na2NiPO4F,4.1186
mp-560905,Na2NpH2(CO3)3,0.1942999999999997
mp-2352,Na2O,1.8736
mp-2340,Na2O2,1.7361
mp-1190635,Na2OsO4,0.21279999999999968
mp-1221558,Na2OsO7,0.7968
mp-1210840,Na2OsO8,0.3809
mp-851402,Na2P2H12O11F2,5.202000000000001
mp-720334,Na2P2H14O13,5.1678
mp-698063,Na2P2H2O7,5.205
mp-758453,Na2P2H4N2O5,4.6627
mp-1211181,Na2P2O13,0.96
mp-1180318,Na2P2O7,0.3294
mp-555933,Na2P2PbO7,4.2885
mp-8989,Na2P2PdO7,1.4839
mp-978284,Na2P3HO9,5.2647
mp-1195486,Na2P4Pd3O14,0.6603999999999999
mp-720570,Na2PH11O8,5.2623
mp-708993,Na2PH15O11,4.5395
mp-644245,Na2PH3O5,4.8148
mp-720853,Na2PH5O6,4.7243
mp-1197129,Na2PH6(SeO)3,1.4727
mp-556699,Na2PHO3,5.5798999999999985
mp-703305,Na2PHO4,4.7475000000000005
mp-12159,Na2PO3F,4.4907
mp-1101885,Na2PS3,2.7385
mp-567228,Na2PSe3,1.924
mp-27622,Na2PbO2,2.4071
mp-1210368,Na2PbO3,1.2502
mp-558335,Na2Pd(NO2)4,1.9466
mp-560120,Na2Pd(NO3)4,1.7034
mp-1195013,Na2Pd(S4O13)2,1.5291
mp-559068,Na2Pd(SeO4)2,1.5959999999999999
mp-27562,Na2Pd3O4,0.4340999999999999
mp-4823,Na2PdC2,0.8829
mp-29359,Na2PdCl4,1.1864
mp-3622,Na2PdF4,1.2395999999999998
mp-1210356,Na2PdF6,2.0355
mp-685478,Na2PdO3,0.9613
mp-10223,Na2PdS2,0.9481000000000002
mp-1078751,Na2PdSe2,0.7049000000000003
mp-684783,Na2Pr4Br9NO,3.3379000000000003
mp-555829,Na2Pr4Cl9O2,0.6162999999999998
mp-1113375,Na2PrCuCl6,1.2618999999999998
mp-1198990,Na2PrGeO5,0.5347999999999999
mp-1199807,Na2PrN5O16,0.5521
mp-1210331,Na2PrSiO5,0.5640000000000001
mp-1180513,Na2Pt(CO4)4,0.007299999999999973
mp-1105341,Na2Pt(ClO)6,0.8854
mp-4366,Na2PtC2,0.3662000000000001
mp-1192379,Na2PtF6,2.549
mp-22313,Na2PtO2,1.4632999999999998
mp-560860,Na2PtO3,1.4807999999999997
mp-1180241,Na2PtO6,0.21520000000000009
mp-10246,Na2PtS2,1.1356999999999997
mp-14588,Na2PtSe2,0.8645999999999998
mp-1210286,Na2ReO3,1.962
mp-1111300,Na2RhAuF6,0.6266
mp-1203876,Na2RhS2O11,0.016799999999999926
mp-559658,Na2S2O3,4.2133
mp-31370,Na2S2O5,3.2692
mp-31269,Na2S2O7,5.0852
mp-1103074,Na2S3N,0.058599999999999985
mp-28127,Na2S5,1.7602000000000002
mp-21282,Na2SO3,4.908899999999999
mp-1180310,Na2SO5,0.1077
mp-780683,Na2Sb4O11,1.2614
mp-30972,Na2Sb4O7,3.0602
mp-1195293,Na2Sb5C2S2N2(OF3)3,3.1335
mp-1221319,Na2SbAs,0.5909
mp-771166,Na2SbAsCO7,3.2261
mp-7774,Na2SbAu,0.3697000000000004
mp-1111412,Na2SbAuF6,0.5332000000000001
mp-27936,Na2SbF5,4.824
mp-768144,Na2SbPCO7,3.8758
mp-557006,Na2SbSO4F3,4.4339
mp-694985,Na2Sc4Zn2(MoO4)9,3.5152
mp-1111525,Na2ScAgCl6,3.0915
mp-1111316,Na2ScAgF6,2.0394
mp-1111084,Na2ScAuF6,1.0149
mp-1111532,Na2ScCuCl6,1.811
mp-1111065,Na2ScCuF6,0.04530000000000012
mp-1221317,Na2ScIn(SiO3)4,4.272
mp-767518,Na2ScPCO7,4.351
mp-1190423,Na2Se2O7,2.8045
mp-5416,Na2SeO3,4.2235
mp-5141,Na2SeO4,3.3557
mp-1180240,Na2SeO5,1.7673
mp-722977,Na2Si(H3O2)6,4.7453
mp-24369,Na2Si(H4O3)3,4.6935
mp-707840,Na2Si(H5O4)2,4.6022
mp-1020159,Na2Si(S2O7)3,5.3318
mp-16970,Na2Si2O5,4.4261
mp-18104,Na2Si2S5,3.5318
mp-18562,Na2Si2Se5,2.4355
mp-698025,Na2Si3(HO4)2,4.5496
mp-556198,Na2Si3O7,4.3033
mp-1203979,Na2Si3SnO11,0.4109999999999999
mp-541571,Na2Si4NiO10,3.3741
mp-662605,Na2Si4O9,4.4699
mp-771025,Na2SiBSbO7,2.1623
mp-772999,Na2SiBiBO7,0.07450000000000001
mp-3775,Na2SiF6,6.9888
mp-504605,Na2SiH16O11,4.4711
mp-4533,Na2SiO3,3.8657
mp-1192918,Na2SiO8,0.5371
mp-1180535,Na2SiO9,0.2302
mp-771774,Na2SiSnCO7,3.0973999999999995
mp-1210364,Na2Sm2B2O7,4.2408
mp-15155,Na2Sm2Ti3O10,2.0283
mp-1111488,Na2SmCuCl6,1.3887
mp-767523,Na2SmPCO7,4.4432
mp-1212538,Na2Sn,9.999999999976694e-05
mp-554823,Na2Sn(CO2)4,2.8052
mp-644276,Na2Sn(H2N)6,1.214
mp-643788,Na2Sn(HO)6,3.2562
mp-1202012,Na2Sn(S2O7)3,3.5073
mp-560327,Na2Sn2C3(O2F)3,2.4736
mp-707767,Na2Sn2H4O5,2.3097000000000003
mp-761872,Na2Sn2O3,0.4260999999999999
mp-16167,Na2Sn2Se5,1.0177999999999998
mp-762258,Na2Sn4O9,1.4813
mp-574684,Na2SnAs2,0.4777
mp-772625,Na2SnBAsO7,1.1457999999999997
mp-768592,Na2SnBPO7,1.8592
mp-768867,Na2SnCSO7,3.6581
mp-8081,Na2SnF6,4.9577
mp-757981,Na2SnGe2(HO4)2,2.4186
mp-778057,Na2SnO2,2.101700000000001
mp-761184,Na2SnO3,2.5076
mp-571470,Na2SnSe3,0.9568
mp-10349,Na2SnTeO6,1.2355999999999998
mp-1212069,Na2Sr(Ge4O9)2,2.9682000000000004
mp-1180362,Na2Sr(P2O9)2,0.5098
mp-540951,Na2Sr(PO3)4,5.3329
mp-1221321,Na2Sr(SiO3)2,3.9875
mp-558954,Na2Sr2Al2PO4F9,5.8328
mp-1221316,Na2Sr2Nb4O13,2.1173
mp-1221310,Na2Sr3As4,0.6205000000000003
mp-1221315,Na2Sr3P4,1.0382999999999996
mp-1211664,Na2Sr3Zr(C2O7)3,0.007599999999999996
mp-697817,Na2Sr6ZnFe6F34,3.4149000000000003
mp-555865,Na2Sr7Al6F34,6.9463
mp-1221313,Na2SrAl4(B2O7)2,2.4843
mp-556356,Na2SrAl4(SiO4)4,4.7045
mp-1097085,Na2SrCa,0.9623
mp-695243,Na2SrLa2Ti5O15,1.995
mp-763837,Na2SrLiVP2O9,1.7614999999999998
mp-1197316,Na2SrMg(PO4)2,4.9902
mp-1194593,Na2SrMnV2O8,2.6608
mp-532802,Na2SrNd2Ti5O15,2.1103999999999994
mp-1195067,Na2SrV2CoO8,2.3043
mp-565267,Na2SrV3O9,2.2136
mp-18975,Na2SrV4O12,3.0358
mp-565217,Na2SrVP2O9,2.5425999999999997
mp-3285,Na2Ta4O11,3.4657
mp-1111551,Na2TaAgF6,0.2614000000000001
mp-1111549,Na2TaAuF6,1.1315
mp-1111485,Na2TbCuCl6,1.4922
mp-565313,Na2TbMoPO8,4.2082000000000015
mp-767529,Na2TbPCO7,4.5215
mp-1199562,Na2TbPWO8,4.7574000000000005
mp-1078535,Na2TcF6,1.5932000000000002
mp-1221809,Na2Te(BrO)6,0.6990000000000001
mp-721017,Na2Te(H5O4)2,4.5416
mp-29381,Na2Te2As,1.0608
mp-720921,Na2Te2H4O7,3.7368
mp-28713,Na2Te2O5,2.9290000000000003
mp-20254,Na2Te2O7,0.7000000000000002
mp-567669,Na2Te3Mo3O16,2.6369
mp-559249,Na2Te4MoO12,2.678
mp-28904,Na2Te4O9,3.1228
mp-562125,Na2Te4WO12,3.0226
mp-758235,Na2TeH5SO10,0.1906
mp-1210414,Na2TeH6SO10,2.8623000000000003
mp-696485,Na2TeHSO5F3,3.4407
mp-541619,Na2TeO3,3.2684000000000006
mp-560613,Na2TeO4,1.8126
mp-1180445,Na2TeO5,0.23640000000000005
mp-1201078,Na2TeW2O9,2.7577000000000007
mp-1192524,Na2Th(AsO4)2,3.7104
mp-1221303,Na2Th(MoO4)3,3.4619999999999997
mp-582483,Na2Th(PO4)2,4.9462
mp-1182743,Na2Th(SO6)3,0.3664
mp-4829,Na2ThF6,6.4627
mp-1221270,Na2ThTi3O9,1.8987000000000005
mp-1202699,Na2Ti(SiO4)2,0.02090000000000003
mp-774527,Na2Ti12O25,2.7649
mp-1120828,Na2Ti2F7,0.016599999999999948
mp-781948,Na2Ti2O5,3.9
mp-680191,Na2Ti2Se9,0.9515000000000002
mp-1210399,Na2Ti2Si2H2O9,2.144
mp-1198063,Na2Ti2Si2O11,1.1961
mp-5996,Na2Ti2Si2O9,3.2630000000000003
mp-1200505,Na2Ti2Si4O13,3.4866
mp-569978,Na2Ti3Cl8,0.4333999999999998
mp-1238298,Na2Ti3Mn(Si2O11)2,0.8592000000000001
mp-849718,Na2Ti4O9,2.4331
mp-5449,Na2Ti6O13,2.9167
mp-759786,Na2Ti7O15,2.883900000000001
mp-650929,Na2Ti9O19,2.1886
mp-744924,Na2TiCr(PO4)3,2.5205
mp-1120794,Na2TiF5,0.1387999999999998
mp-556024,Na2TiF6,4.7506
mp-694979,Na2TiFe(PO4)3,2.3154000000000003
mp-566861,Na2TiFe5(Si3O10)2,2.3046
mp-6228,Na2TiGeO5,3.2299
mp-1191567,Na2TiH4O5,0.8764000000000001
mp-1111410,Na2TiHgF6,1.8349
mp-1221264,Na2TiNiO4,1.6995999999999998
mp-752423,Na2TiO3,3.2114000000000003
mp-767550,Na2TiPCO7,0.1887000000000003
mp-557845,Na2TiS2O,2.4723
mp-1205145,Na2TiSi4H2O13,0.3337
mp-1200866,Na2TiSi4H4O13,4.1129
mp-556283,Na2TiSi4O11,2.7322999999999995
mp-6138,Na2TiSiO5,2.9882
mp-1221267,Na2TiTeO6,2.4523
mp-14065,Na2TiZn2GeO7,3.0668
mp-13810,Na2TiZn2SiO7,3.0107
mp-554657,Na2Tl2B10O17,4.1036
mp-1111314,Na2TlAgF6,0.1359
mp-1093965,Na2TlAs,0.005100000000000104
mp-1111404,Na2TlAsF6,2.0589000000000004
mp-1110618,Na2TlGaF6,3.4612000000000003
mp-1197622,Na2TlP3H7N3O8,4.4009
mp-756769,Na2TlPCO7,1.1597000000000002
mp-1096009,Na2TlPb,0.08440000000000003
mp-866132,Na2TlSb,0.3843999999999999
mp-1111523,Na2TmAgCl6,2.8286
mp-1111042,Na2TmCuCl6,1.6033000000000004
mp-1210390,Na2TmMoPO8,4.199299999999999
mp-767566,Na2TmPCO7,4.4129999999999985
mp-1198653,Na2TmPWO8,4.8012000000000015
mp-1221309,Na2U(MoO4)3,0.008699999999999264
mp-567162,Na2U(MoO5)2,2.2616
mp-566655,Na2U(WO5)2,2.0015
mp-1190548,Na2U2O7,1.6151999999999995
mp-560638,Na2U2Si(O4F)2,2.0783
mp-568694,Na2UBr6,0.1160000000000001
mp-555679,Na2UF6,0.3066
mp-1103472,Na2UF8,2.5451
mp-1191289,Na2UI4O15,1.9428
mp-554191,Na2UO4,1.8660000000000003
mp-15385,Na2UP2O9,2.1752
mp-560004,Na2USiO6,1.9761
mp-1190512,Na2UTeO7,1.8623
mp-19482,Na2V(PO4)2,2.5730000000000004
mp-1221666,Na2V16Mo2O45,0.7188000000000001
mp-764174,Na2V2(PO4)3,0.9549
mp-1120785,Na2V2F7,0.3737999999999999
mp-1076048,Na2V2O5,0.14910000000000026
mp-640807,Na2V2ZnO7,3.2743
mp-567133,Na2V3O7,2.4932
mp-565935,Na2V3P2O13,1.7762
mp-1173851,Na2V9MoH35(N2O19)2,0.8077
mp-771418,Na2VAsCO7,2.1657
mp-773190,Na2VBAsO7,1.5444
mp-770003,Na2VBPO7,1.4714
mp-772357,Na2VCSO7,2.8608
mp-1180838,Na2VCoF7,2.2915
mp-1221292,Na2VCu3S4,0.009000000000000341
mp-1120790,Na2VF5,2.4043
mp-1199680,Na2VFeF7,1.6736999999999995
mp-1191842,Na2VNiF7,2.4656
mp-851022,Na2VO3,2.3607
mp-1194140,Na2VO4,0.3379
mp-567672,Na2VOF4,2.9353
mp-770717,Na2VPCO7,2.1236999999999995
mp-569374,Na2VPO6,3.3151
mp-566053,Na2VS2O9,2.6796
mp-863300,Na2VSi(W2O9)6,0.05520000000000014
mp-772691,Na2VSiCO7,1.9189
mp-541649,Na2W(OF2)2,4.2853
mp-1097724,Na2W2O5,1.5016000000000005
mp-25800,Na2W2O7,4.0512
mp-766063,Na2W3O10,3.9794
mp-18803,Na2WO4,4.7521
mp-1196713,Na2WO6,0.9709
mp-6331,Na2Y2B2O7,4.3727
mp-1194587,Na2Y2B2TeO10,2.8937000000000004
mp-1197762,Na2Y3Te4(ClO4)3,3.442
mp-1111092,Na2YAgF6,1.6484
mp-559833,Na2YC(OF)3,5.261
mp-1111744,Na2YCuBr6,1.5631000000000002
mp-1111514,Na2YCuCl6,1.5281000000000002
mp-1202901,Na2YHC2O7,4.6907999999999985
mp-567058,Na2YMoPO8,4.1934000000000005
mp-767462,Na2YPCO7,4.5832
mp-1201418,Na2YPWO8,4.7372
mp-1102129,Na2YbCdSb2,0.32410000000000005
mp-1190399,Na2Zn(GeS3)2,2.2453
mp-1190476,Na2Zn(GeSe3)2,1.3493
mp-734019,Na2Zn(HO)4,3.0835
mp-554754,Na2Zn(SO4)2,4.4697
mp-6675,Na2Zn(SiO3)2,3.8771
mp-1190487,Na2Zn(SnS3)2,1.7173
mp-1221398,Na2Zn11(MoO4)12,3.2932
mp-672223,Na2Zn2(TeO3)3,2.9687
mp-554845,Na2Zn2O3,1.2476000000000005
mp-1212603,Na2Zn2P2O11,0.3851
mp-1094107,Na2Zn2S3,2.1572
mp-1024049,Na2Zn2Se3,1.9011
mp-6507,Na2Zn2Si2O7,3.323
mp-555300,Na2Zn3(SiO4)2,2.7951
mp-1195934,Na2Zn3H4(Se2O7)2,4.0529
mp-1024069,Na2Zn3S4,2.0222
mp-1024050,Na2Zn3Se4,1.7234
mp-1221272,Na2Zn3SiAs4,0.060999999999999936
mp-560934,Na2Zn5(PO4)4,3.6589
mp-1020181,Na2ZnB6O11,4.7511
mp-28830,Na2ZnBr4,3.9249
mp-616461,Na2ZnCl4,4.5763
mp-1078510,Na2ZnCl4O3,0.6185999999999998
mp-1221277,Na2ZnFe(PO4)2,3.3387
mp-1210392,Na2ZnFe2(PO4)3,0.3476999999999997
mp-560220,Na2ZnFeF7,2.9496
mp-15547,Na2ZnGaF7,3.9775
mp-699457,Na2ZnGe2(HO2)4,3.2182
mp-6402,Na2ZnGeO4,2.6212
mp-1210311,Na2ZnH3Cl4,2.2539
mp-643776,Na2ZnH4(SeO5)2,3.0254
mp-23787,Na2ZnH8(SO6)2,4.7877
mp-29488,Na2ZnO2,1.4556999999999998
mp-740740,Na2ZnP(H5O4)3,4.1654
mp-707459,Na2ZnP2(H5O6)2,4.4395
mp-40963,Na2ZnP2O7,4.042
mp-1198456,Na2ZnP4(H4O5)4,4.9092
mp-758238,Na2ZnPHO5,3.6144
mp-1213586,Na2ZnPO12,0.05319999999999992
mp-1198933,Na2ZnPO5,0.24070000000000005
mp-1024067,Na2ZnS2,2.3053
mp-1024052,Na2ZnSe2,1.7263000000000002
mp-6481,Na2ZnSi3O8,3.9452
mp-6391,Na2ZnSiO4,3.3033
mp-1225236,Na2ZnSn5,0.002800000000000136
mp-556536,Na2Zr(CuS2)2,0.007100000000000328
mp-541642,Na2Zr(MoO4)3,3.0133
mp-1221344,Na2Zr(Si2O5)3,4.8740999999999985
mp-1180470,Na2Zr(SiO3)6,0.34700000000000003
mp-566734,Na2Zr(WO4)3,3.2097
mp-532604,Na2Zr12B2I5Cl23,1.2721
mp-1186029,Na2Zr2O5,2.0295
mp-1212421,Na2ZrCd(CO3)8,0.15070000000000006
mp-19187,Na2ZrCo(P2O7)2,3.0646000000000004
mp-27307,Na2ZrF6,6.2517999999999985
mp-1210430,Na2ZrFeSi2O8F,2.8118000000000003
mp-561166,Na2ZrGe2O7,3.6856
mp-561346,Na2ZrGeO5,3.4539
mp-18984,Na2ZrNi(P2O7)2,3.789
mp-990440,Na2ZrO3,4.350999999999999
mp-1196272,Na2ZrP2O11,0.258
mp-1180616,Na2ZrPCO10,0.3511
mp-1210267,Na2ZrS3,1.7712
mp-7219,Na2ZrSe3,1.3176000000000003
mp-558191,Na2ZrSi2O7,4.5653
mp-1180329,Na2ZrSi3O10,0.5186
mp-1200500,Na2ZrSi3O11,0.2276
mp-1210375,Na2ZrSi4H4O13,4.9358
mp-6824,Na2ZrSi4O11,4.5766
mp-1194692,Na2ZrSi6(HO3)6,4.9388
mp-556709,Na2ZrSiO5,4.004
mp-1210402,Na3(CO3)2,0.2771
mp-1176355,Na3(CoO2)2,1.3081999999999998
mp-861555,Na3(CoO2)5,0.3043999999999998
mp-1173856,Na3(Mo9O26)2,0.7681000000000002