task_id,composition,band_gap
mvc-14591,La2ZnNiO6,1.2027
mp-756599,La2ZnO4,3.033
mp-1207077,La2ZnSb3,0.1431
mvc-15177,La2ZnSnO6,3.0844
mp-4974,La2Zr2O7,3.7409
mp-1079926,La2ZrNiO6,1.8862999999999996
mp-1200409,La2ZrSe5,0.8294999999999995
mp-22729,La3(GePd)4,0.005100000000000549
mp-15009,La3(GeRh)4,0.0045000000000001705
mp-1195147,La3(IO3)13,0.02039999999999997
mp-690120,La3(MoO5)2,1.7002999999999997
mp-617632,La3AgGeS7,1.9759
mp-542888,La3AgSnS7,1.9474
mp-17155,La3AgSnSe7,1.2989000000000006
mp-1223294,La3Al(FeO3)4,1.4352999999999998
mp-1223112,La3Al2Ga3SnO14,3.6351
mp-780432,La3Al5O12,3.7948
mp-1191443,La3AlCdS7,2.2588
mp-1192315,La3AlFeS7,0.03530000000000033
mp-1191776,La3AlNiS7,0.03589999999999982
mp-1178155,La3AlO6,4.2116
mp-1191872,La3AlZnS7,2.2691
mp-1203678,La3As2BrO7,3.1081
mp-555073,La3As2ClO7,3.1499
mp-29990,La3B2N5,1.1710000000000012
mp-779571,La3B5O12,3.8196
mp-1019895,La3BN2O3,1.2114000000000011
mp-614369,La3BWO9,3.7853
mp-1192025,La3BeAlS7,2.1837
mp-1191180,La3BeBiS7,1.7015000000000002
mp-1192356,La3BeCrS7,0.6663000000000006
mp-1211398,La3BeGaS7,2.0855
mp-1192038,La3BeInS7,1.6223
mp-1191568,La3BeSbS7,1.4983000000000004
mp-1191498,La3BeVS7,0.000399999999999956
mp-772194,La3Bi3O11,0.3738999999999999
mp-1105333,La3Bi4Au3,0.44010000000000016
mp-29197,La3Br6N,3.0575
mp-29994,La3C2Br3,0.03690000000000016
mp-569686,La3C2I3,0.1368999999999998
mp-570942,La3C3Cl2,0.030899999999999924
mp-568484,La3CBr5,2.2338000000000005
mp-568591,La3CI5,0.2535999999999996
mp-1223344,La3Co2CuO9,0.2370999999999999
mp-1192676,La3CoW(SO2)3,1.1432000000000002
mp-866745,La3CrW(SO2)3,1.3701
mp-1105893,La3Cu3Bi4,0.29329999999999945
mp-1105594,La3Cu3Sb4,0.3314000000000004
mp-582767,La3CuGeS7,1.7961
mp-555681,La3CuS3O2,1.287
mp-504650,La3CuSiS7,1.7776999999999994
mp-568082,La3CuSiSe7,1.5846
mp-510566,La3CuSnS7,1.7763999999999998
mp-567753,La3CuSnSe7,1.2088
mp-1212003,La3Fe5O12,1.9345
mp-1180667,La3FeO6,2.9259000000000004
mp-1193798,La3FeW(SO2)3,0.20420000000000016
mp-780561,La3Ga5O12,2.8689999999999998
mp-6788,La3Ga5SnO14,3.3050000000000006
mp-1192172,La3GaFeS7,0.03169999999999984
mp-652961,La3GaGe5O16,3.2544
mp-754150,La3GaO6,3.8351000000000006
mp-561076,La3GaS5O,1.1964999999999997
mp-1225825,La3Gd(BrO)4,2.5011
mp-1223064,La3Gd(ClO)4,3.0645999999999995
mp-849780,La3H15I10O37,3.3704
mp-1211281,La3HfGa5O14,3.7165
mp-1211871,La3In2(GaO4)3,2.7233
mp-1191215,La3InFeS7,0.4757000000000007
mp-1191485,La3InNiS7,0.4185999999999997
mp-540877,La3InS6,1.1154000000000002
mp-1212454,La3Lu2(GaO4)3,3.2719000000000005
mp-1190796,La3LuBeS7,1.4936999999999996
mp-1223356,La3Mg2NbO9,3.0866000000000007
mp-1223326,La3Mg2TaO9,3.6527999999999987
mp-1190945,La3MgAlS7,2.2953
mp-1191110,La3Mn2Sb3O14,1.2219999999999995
mp-1223206,La3Mn8BiO20,0.9016000000000002
mp-866692,La3MnAlS7,1.2419000000000002
mp-18484,La3MnFeS7,0.05370000000000008
mp-504891,La3MnGaS7,0.4502999999999995
mp-1198818,La3Mo4O16F,3.6204
mp-505305,La3MoO7,0.023600000000000062
mp-560349,La3NbO7,2.8479
mp-558478,La3NbSe2(O2F)2,1.4329999999999998
mp-1223104,La3Nd(GaO3)4,3.3748000000000005
mp-1224647,La3Nd11(Si3O13)3,4.144400000000001
mp-1223135,La3NdCr4O12,2.1956
mp-1223156,La3NdMn4O12,0.021399999999999864
mp-1223092,La3NdZr4O14,3.615
mp-675834,La3O2F5,3.5752000000000006
mp-31353,La3OsO7,0.1687000000000003
mp-779590,La3PO7,4.062099999999999
mp-1227132,La3Pb3I13O40,2.8998
mp-768523,La3Pt3O11,1.7142999999999995
mp-540878,La3Re2O9,0.21030000000000013
mp-28121,La3ReO8,1.8545
mp-555129,La3S3N,1.3357
mp-1190030,La3Sb4Au3,0.601
mp-1211710,La3Sb5O12,3.2056000000000004
mp-1190600,La3SbO7,2.8520000000000003
mp-1211869,La3Sc2(GaO4)3,3.3301000000000003
mp-866696,La3ScBeS7,0.9362999999999992
mp-752569,La3ScO6,4.0062
mp-1223184,La3Se4Cl,1.2047999999999996
mp-1224288,La3Si(Mo2O7)2,1.3205999999999998
mp-773117,La3Si2BO10,4.4115
mp-555191,La3Si2Cl3O7,4.1096
mp-558985,La3Si2ClO8,4.5009
mp-560523,La3Si2S8Br,2.5851
mp-556246,La3Si2S8Cl,2.611800000000001
mp-23090,La3Si2S8I,2.516
mp-1019893,La3Si6N11,2.9659000000000004
mp-17719,La3SiAgS7,1.9689000000000003
mp-6485,La3SiAgSe7,1.6373999999999995
mp-1194197,La3SiN4F,2.0208999999999997
mp-1223137,La3Sm(FeO3)4,1.4068000000000005
mp-1076194,La3SmCr2(FeO5)2,0.9252000000000002
mp-1076611,La3SmCr2(FeO6)2,0.8243999999999998
mp-1223143,La3SmCr4O12,2.2344
mp-1099885,La3SmV2Cr2O10,0.3219000000000003
mp-1076191,La3SmV3CrO10,0.037400000000000766
mp-1076338,La3SmV3CrO12,0.8855999999999993
mp-30513,La3Sn13Rh4,0.05819999999999936
mp-1211290,La3Ta(Cl3O2)2,3.5681
mp-1223384,La3TaCo2O9,1.8878000000000004
mp-31415,La3TaO7,3.4556000000000004
mp-1211741,La3TaTi2O11,2.649800000000001
mp-1223146,La3Tb(PO4)4,4.6884000000000015
mp-1198669,La3Te4Br,0.05540000000000056
mp-754172,La3Ti2N3O4,1.0174000000000003
mp-769844,La3Ti3CrO12,0.3308
mp-555471,La3Ti5Al15O37,1.3978000000000002
mp-556659,La3TiCl5O4,3.4545000000000003
mp-1211258,La3TiGa5O14,3.1148
mp-1212025,La3Tm2(GaO4)3,3.2103999999999995
mp-554303,La3U(ClO2)3,1.5601000000000005
mp-673814,La3U2O10,0.13170000000000126
mp-1194534,La3VH3O8,2.2501
mp-25727,La3W(ClO2)3,3.5961
mp-1223169,La3YHf4O14,0.01869999999999994
mp-1223134,La3YSc4O12,3.9534
mp-1223094,La3YTi4O14,2.7504
mp-672262,La3Zn3Ge2SbO14,2.9454
mp-18573,La3ZnNi3,0.006199999999999761
mp-1097057,La3Zr2Cu7O12,0.7248000000000001
mp-1211277,La3ZrGa5O14,3.6964
mp-772771,La4(B2O5)3,4.555999999999999
mp-622353,La4(CoO3)3,0.5617999999999999
mp-650031,La4(GeS4)3,1.9356
mp-1212125,La4(MoO4)9,0.1478
mp-675223,La4Ag2Se7,1.5201000000000002
mp-780409,La4Al2O9,4.3820999999999986
mp-1024042,La4Al6O15,4.464499999999999
mp-1223194,La4As2(S2O)3,0.0940000000000003
mp-1223144,La4As2S5O4,1.285
mp-1211567,La4AsBrO8,4.055999999999999
mp-9160,La4Au2O9,1.9691
mp-1019894,La4B10O21,4.138800000000002
mp-645962,La4B14O27,4.1752
mp-753883,La4Bi2O9,2.5475000000000003
mp-28727,La4Bi2S9,1.0769000000000002
mp-1223049,La4Br3ClO4,3.7723
mp-1223072,La4BrCl3O4,3.9429
mp-1211788,La4CI6N,1.1943
mp-1223232,La4CeZr3O14,0.4091000000000005
mp-1211676,La4Co,0.07559999999999968
mp-25479,La4CoO8,0.29719999999999924
mp-1191757,La4CoS7,0.03580000000000005
mp-566991,La4Cu3MoO12,0.22529999999999986
mp-1223088,La4Cu4Se3SO4,1.5632
mp-1223082,La4Cu4SeS3O4,1.6197999999999997
mp-579589,La4Cu6(MoO4)9,1.6941999999999997
mp-1223109,La4Fe(CoO4)3,0.10449999999999983
mp-1203562,La4Fe(SbS5)2,0.0964999999999998
mp-1200263,La4Fe(SbSe5)2,0.12659999999999982
mp-770617,La4FeO8,1.0986000000000002
mp-1192920,La4FeS7,0.1543000000000001
mp-769915,La4Ga2O9,3.8863
mp-1223050,La4Ga3FeO12,2.5045
mp-1223571,La4GdSc15(BO3)20,2.1493
mp-1211472,La4Ge7,0.009999999999999787
mp-1211987,La4GeO8,3.7687000000000013
mp-1211389,La4Mg3Ag10,0.04629999999999957
mp-1223055,La4MgCr3O12,0.6438999999999995
mp-1212027,La4MgSi4(C2O11)2,1.5930000000000002
mp-560796,La4Mn(Cu3S5)2,1.1272000000000002
mp-1223093,La4Mn(NiO4)3,0.17539999999999978
mp-1223131,La4Mn3NiO12,0.13290000000000024
mp-763616,La4Mn4O11,0.2237
mp-555663,La4Mn5(Si2O11)2,0.9863
mp-772243,La4MnO8,1.3675999999999997
mp-19651,La4MnSe6O,1.9432
mp-19536,La4Mo2O11,1.7542
mp-647867,La4Mo7O27,3.0976000000000004
mp-1223118,La4Nb(CoO4)3,0.25
mp-1223043,La4Nd4S4O7,0.4068000000000005
mp-1223026,La4Ni3MoO12,0.04330000000000034
mp-1223132,La4Ni3WO12,0.9185
mp-543085,La4NiO8,0.8567
mp-1191491,La4NiS7,0.08890000000000065
mp-1196615,La4PClO8,4.4289999999999985
mp-31031,La4PdO7,0.3863000000000003
mp-1223078,La4PtO7,0.8625999999999996
mp-626,La4Rh3,0.032399999999999984
mp-556958,La4S3N2,1.1936999999999998
mp-559256,La4S3NCl3,2.9165
mp-1223145,La4S4Cl2O,2.7462
mp-1205351,La4Se3N2,1.7092
mp-4412,La4Se3O4,1.3261000000000005
mp-1223069,La4Se7S,0.335
mp-15897,La4Si2S3O7,2.4924
mp-14912,La4Si2Se3O7,2.2305
mp-641010,La4Te3N2,0.8803000000000001
mp-1223562,La4Ti2Se5O4,0.11019999999999984
mp-1223217,La4Ti3(SO2)4,0.6413000000000002
mp-3249,La4Ti3O12,2.9902
mp-1223346,La4Ti5(TeO8)3,1.5846
mp-560383,La4Ti9O24,2.8636
mp-1212566,La4TiO8,2.3519
mp-770296,La4Zn3O9,1.7738000000000005
mp-1223629,La4ZnCu2MoO12,0.3456000000000001
mp-654080,La5(Mo16O27)2,0.04870000000000019
mp-705132,La5(Mo2O7)3,1.0219000000000005
mp-1223266,La5(MoO4)4,0.7106000000000003
mp-569576,La5(SiN3)3,1.9651999999999996
mp-37478,La5AgS8,1.5947000000000005
mp-33775,La5AgSe8,1.4229000000000005
mp-1223240,La5AlSi2O13,4.2227
mp-29594,La5B4N9,1.3068
mp-29070,La5C2Br9,1.7523999999999995
mp-619791,La5C2Cl9,1.6330999999999998
mp-571432,La5C2I9,1.5029000000000003
mp-1188521,La5CoPb3,0.012599999999999945
mp-743924,La5CoRe3O16,0.0185000000000004
mp-1223268,La5Mg2Mn3O15,0.7543000000000006
mp-699243,La5MgRe3O16,0.09419999999999984
mp-705775,La5Mn5O16,0.010000000000000677
mp-698557,La5Mn6O18,0.0116000000000005
mp-21691,La5Pb4,0.02200000000000024
mp-1105577,La5RuPb3,0.057199999999999925
mp-1019896,La5S4NO2,1.4327000000000003
mp-559298,La5Sb4(O4F)3,3.3074
mp-1224631,La5Se6N,1.582
mp-1223205,La5Si2BO13,4.1504
mp-18345,La5Si4,0.014499999999999956
mp-1076874,La5Sm3Co7CuO20,0.04559999999999942
mp-1076203,La5Sm3Cr6(FeO10)2,0.2785000000000002
mp-1076580,La5Sm3Cr6(FeO12)2,1.7537000000000005
mp-1100047,La5Sm3Cr7FeO20,0.06299999999999972
mp-1075954,La5Sm3Cr7FeO24,1.9836
mp-1076603,La5Sm3Cr8O24,1.9165999999999992
mp-1076879,La5Sm3V2Cr6O20,0.015100000000000337
mp-1099675,La5Sm3V2Cr6O24,0.4632000000000005
mp-1099724,La5Sm3VCr7O24,1.4174000000000009
mp-555253,La5Ti2AgS5O7,1.5128000000000004
mp-559474,La5Ti2CuS5O7,1.3055000000000003
mp-641117,La5Ti4FeO17,1.4488000000000003
mp-1223729,La5Ti4GaO17,2.3469000000000007
mp-1223572,La5Ti6S3(ClO5)3,1.7070999999999996
mp-35714,La5TlS8,1.3953999999999995
mp-37829,La5TlSe8,1.3176999999999994
mp-35907,La5TlTe8,1.0812999999999997
mp-650816,La5V3S6O7,1.0339
mp-560824,La6B(NO2)3,1.0963000000000005
mp-1223157,La6Cd(SiS7)2,1.9462
mp-1223187,La6Co(SiS7)2,0.2469000000000001
mp-1200333,La6CoCl11,0.6724999999999994
mp-1223247,La6Fe(SiS7)2,0.051899999999999835
mp-1223466,La6Mg(GeS7)2,2.0096000000000007
mp-1223141,La6Mg(SiS7)2,1.9697999999999996
mp-1223191,La6Mn(SiS7)2,1.1116
mp-698577,La6Mn5O18,0.049900000000000055
mp-556874,La6Mo8O33,3.2255000000000003
mp-1223199,La6NbGa11O28,3.1643
mp-1223425,La6S3(OF4)2,2.6053000000000006
mp-559994,La6S4BrN3,1.4091000000000005
mp-555012,La6S4N3Cl,1.2603999999999995
mp-1223262,La6Sb4(SO4)3,1.5624999999999991
mp-1223361,La6Si2NiS14,0.3164999999999996
mp-1099892,La6Sm2Cr3(FeO4)5,0.9913999999999996
mp-1076529,La6Sm2Cr3Fe5O24,0.8417000000000003
mp-1099896,La6Sm2Cr5(FeO8)3,1.4566000000000008
mp-1099978,La6Sm2Cr5Fe3O20,0.4482999999999997
mp-1076584,La6Sm2V3Cr5O24,0.5922999999999989
mp-1099931,La6Sm2V5Cr3O20,0.15839999999999946
mp-1223200,La6TaGa11O28,3.4567
mp-554286,La6Ti2S8O5,1.3379000000000003
mp-680312,La6Ti3Se9O5,0.05629999999999935
mp-19992,La6UO12,1.9808999999999992
mp-769819,La6WO12,3.4628
mp-530910,La6YbSe10,1.6795
mp-1223149,La6Zn(SiS7)2,1.9859
mp-531991,La6Zr8F47,0.0002999999999993008
mp-1212141,La7(BrO6)3,0.21019999999999994
mp-1197276,La7(IO6)3,0.005399999999999849
mp-555890,La7(RuO6)3,0.4051999999999998
mp-1212336,La7BP2O17,4.416900000000001
mp-1223204,La7CoI12,0.036599999999999966
mp-1212632,La7Cr2BO17,1.1682999999999997
mp-698566,La7Mn8O24,0.03750000000000053
mp-19436,La7Mo7O30,1.1666000000000007
mp-1223314,La7Nb3(W2O15)2,3.2828
mp-570305,La7Sb11Br4,0.1352000000000002
mp-997587,La7ScAl8O24,2.5344999999999995
mp-1076176,La7Sm(Fe2O5)4,0.8200000000000003
mp-1076382,La7Sm(FeO3)8,0.8335999999999997
mp-1076204,La7SmCr2(Fe3O10)2,0.8217999999999996
mp-1076431,La7SmCr2(FeO4)6,0.8487000000000009
mp-1076459,La7SmCrFe7O20,0.8537999999999997
mp-1099808,La7SmCrFe7O24,0.8422000000000001
mp-1076418,La7SmMn2(Fe3O10)2,1.0325999999999995
mp-1076455,La7SmMn3(FeO4)5,1.0196999999999994
mp-1076172,La7SmMn4(FeO5)4,0.9926000000000004
mp-1099861,La7SmMn5Fe3O20,0.4192
mp-1076797,La7SmMn6(FeO10)2,0.14200000000000035
mp-1099704,La7SmMn7FeO20,0.001300000000000523
mp-1099865,La7SmMn8O20,0.03639999999999954
mp-1099902,La7SmMnFe7O20,0.8737000000000004
mp-1076889,La7SmV7CrO20,0.22330000000000005
mp-1076679,La7SmV7CrO24,0.7699999999999996
mp-1076878,La7SmV8O20,0.11689999999999935
mp-1223362,La7Ta3(W2O15)2,3.5361
mp-1212487,La7V2BO17,2.8351
mp-997586,La7YAl8O24,3.6351
mp-997588,La8Al7BO24,3.5096
mp-997585,La8Al7GaO24,3.458
mp-997589,La8Al7InO24,3.3008000000000006
mp-565307,La8Ni4O17,0.2648999999999999
mp-1212218,La8Sb2Se15,1.5416999999999996
mp-1223370,La8Si5N14O,2.358
mp-1223117,La8Te3SeO8,2.0726000000000004
mp-1223592,La9Al5S21,2.2507
mp-1223486,La9Al5Se21,1.6881999999999993
mp-1225117,La9Ce3Si8(S8I)4,0.1246999999999998
mp-766452,La9ErO15,3.8787
mp-1224774,La9Ga5S21,1.6752000000000002
mp-1223537,La9Ga5Se21,0.8209999999999997
mp-1224434,La9In(SiS7)3,1.9807
mp-1224749,La9In5S21,1.8522
mp-1227612,La9In5Se21,1.0927999999999995
mp-1224763,La9Lu11(GaO4)12,3.2673
mp-705756,La9Mn10O30,0.032099999999999795
mp-567777,La9Sb16Br3,0.22140000000000004
mp-1195616,LaAg(IO3)4,2.6464
mp-1223057,LaAg(MoO4)2,2.6061
mp-558465,LaAg(PO3)4,3.7647999999999993
mp-754535,LaAgO2,2.8013
mp-6625,LaAgSO,1.3631000000000002
mp-1181876,LaAl(NO4)6,0.003499999999999837
mp-532198,LaAl22O34,0.0011999999999989794
mp-677482,LaAl2Si5N9O,2.0951999999999997
mp-1178196,LaAl33O51,2.7343
mp-1178115,LaAl3O6,4.0152
mp-1211910,LaAlGe2O7,3.2804
mp-1079283,LaAlH6,2.4765
mp-2920,LaAlO3,4.0189
mp-1222884,LaAlSi,0.04320000000000057
mp-1102055,LaAs2,0.31259999999999977
mp-1079050,LaAsO3,2.8816999999999995
mp-772261,LaAsO4,3.8186
mp-1103471,LaAsS,0.36439999999999984
mp-997003,LaAuO2,2.7162
mp-28853,LaAuO3,1.7977
mp-559417,LaB2ClO4,4.1541000000000015
mp-1223430,LaB3F12,5.135
mp-1194424,LaB4ClO8,0.0007999999999999119
mp-1204863,LaB5BrO11,0.2495
mp-1202407,LaB5H5NO14,3.4707
mp-1211684,LaB5HO10,0.10439999999999984
mp-1205267,LaB5IO11,1.2459000000000002
mp-30926,LaB5O9,4.4878
mp-1205243,LaB7IO15,0.6266
mp-566760,LaBMoO6,3.5502
mp-29597,LaBN2,2.1728
mp-8216,LaBO3,4.500700000000001
mp-1205991,LaBi2ClO4,1.3111000000000006
mp-546672,LaBi2IO4,1.2324000000000002
mp-753069,LaBi5O9,1.4817999999999998
mp-768310,LaBiO3,3.0699999999999994
mp-770464,LaBiO4,0.6699000000000002
mp-1206717,LaBiPd,0.26149999999999984
mp-1093906,LaBiPd2,0.29179999999999984
mp-1078397,LaBiS2O,1.2412999999999998
mp-1078431,LaBiSe2O,0.9102000000000006
mp-28572,LaBr2,0.5867999999999998
mp-23263,LaBr3,2.9248000000000003
mp-1180738,LaBr3O7,2.1776
mp-23023,LaBrO,3.7256
mp-1206208,LaBrO2,3.2528
mp-1202339,LaC2ClO7,0.6465
mp-1181174,LaC4NO11,0.3707999999999999
mp-567373,LaCN2Cl,3.2002
mp-556405,LaCN2F,2.681
mp-27311,LaCO,3.0016000000000007
mp-638731,LaCO3F,3.9559
mp-1202759,LaCO4,0.010099999999999998
mp-14555,LaCd(BO2)5,4.3762
mp-1097341,LaCd2Ag,0.028300000000000214
mp-1225482,LaCeAl2O6,0.06159999999999855
mp-1223016,LaCeF6,0.0015000000000000568
mp-1223434,LaCeSb2(SBr)4,0.12760000000000016
mp-1223297,LaCeSbS5Br,0.11070000000000046
mp-1223448,LaCeSi2(BO5)2,0.1837999999999997
mp-22896,LaCl3,3.6454
mp-23025,LaClO,4.069
mp-1207170,LaClO2,3.6060000000000003
mp-19475,LaCo(BO2)5,3.1114
mp-1078624,LaCoC2,0.06010000000000025
mp-989643,LaCoN3,0.4855999999999998
mp-1223180,LaCoSbPbO6,2.2293000000000003
mp-961695,LaCoTe,0.6309000000000005
mp-1106068,LaCr4(CuO4)3,0.13790000000000013
mp-1040828,LaCrAgO6,0.8117000000000001
mp-1040863,LaCrBiO6,1.2056
mp-1040880,LaCrCuO6,0.607
mvc-9006,LaCrFeO6,0.5255999999999998
mp-25686,LaCrHO5,2.5218000000000003
mp-1040803,LaCrMoO6,1.5119999999999998
mp-989612,LaCrN3,1.4148000000000005
mvc-10039,LaCrNiO6,0.04430000000000023
mp-19281,LaCrO3,2.1644999999999994
mp-19668,LaCrO4,1.0296000000000003
mp-10328,LaCrS3,0.05600000000000005
mp-1040816,LaCrSbO6,0.3176999999999994
mp-1211273,LaCrSe2O,0.3826000000000001
mp-1105933,LaCrSe3,0.05259999999999998
mp-1040852,LaCrSnO6,0.3121999999999998
mp-1040801,LaCrTeO6,1.2581000000000009
mp-1040819,LaCrWO6,2.2439
mp-1212602,LaCu(MoO4)2,1.4635999999999996
mp-505061,LaCu(WO4)2,1.4321000000000002
mp-20072,LaCuO2,2.5161999999999995
mp-1223219,LaCuPbS3,1.4915000000000005
mp-4841,LaCuS2,1.2324000000000002
mp-6088,LaCuSO,1.6691000000000005
mp-11790,LaCuSe2,0.8799000000000001
mp-552488,LaCuSeO,1.5467999999999993
mp-546790,LaCuTeO,1.1965999999999992
mp-10288,LaCuTeS,0.4802999999999997
mp-756272,LaDyO3,4.3626
mp-7538,LaErO3,4.394499999999999
mp-558977,LaErS3,0.8793999999999995
mp-642036,LaFe12O19,0.015499999999999403
mp-24966,LaFe3(BO3)4,2.2811
mp-1222983,LaFe4(BiO4)3,1.5656
mp-650954,LaFe5(GeO5)3,1.7010999999999998
mp-1223162,LaFe5Bi4O15,1.7607
mp-25762,LaFeGe2O7,2.645
mp-1043944,LaFeMoO6,1.3935000000000004
mp-542920,LaFeO3,1.3628999999999998
mp-542977,LaFePO,0.27059999999999995
mp-1223010,LaFeTeO6,0.9715999999999996
mp-1043919,LaFeWO6,1.7712000000000003
mp-1212633,LaGaGe2O7,2.8911
mp-7018,LaGaS2O,1.9282000000000004
mp-559594,LaGaSe2O,1.5984999999999996
mp-1222815,LaGd(BrO)2,2.696400000000001
mp-1222800,LaGd(ClO)2,2.9960000000000004
mp-1222951,LaGd3(BrO)4,2.7935
mp-1222917,LaGd3(ClO)4,3.0266
mp-19761,LaGe2,0.010899999999999466
mp-19957,LaGeBO5,4.0105
mp-19898,LaGeRu,0.04050000000000065
mp-707989,LaH12S2NO12,1.6699000000000002
mp-698218,LaH13C3S3O11,4.2977
mp-1202653,LaH15C5Br3O5,0.20530000000000004
mp-707323,LaH16C2N11O17,3.5554
mp-1198888,LaH16C4Cl3O4,4.2515
mp-1199223,LaH16N7O19,3.4062
mp-540953,LaH18C3S3(O2F)9,5.3933
mp-600190,LaH24C3N3(Cl2O)3,4.1757
mp-642729,LaH3(CO2)3,4.0564
mp-1222988,LaH3(SO4)3,4.216
mp-1198469,LaH40C13N9O19,3.5332
mp-1202607,LaH4C2SO8,2.7506
mp-557512,LaH4C4NO8,3.2798000000000003
mp-558126,LaH4S2NO8,4.4517
mp-554650,LaH6(ClO3)3,2.5974000000000004
mp-542688,LaH6Au3C6(N2O)3,2.1417
mp-1199356,LaH6C2SNO9,3.333
mp-1202276,LaH6CO7,1.9421
mp-1223775,LaH6S3(NO3)3,4.3529
mp-762358,LaH9(SO6)2,4.455100000000002
mp-696944,LaHBr2,3.5973999999999995
mp-28255,LaHO,2.4324000000000003
mp-626724,LaHO2,3.839
mp-765350,LaHSe3O10,1.5778
mp-1211227,LaHf2F11,6.2166
mp-1211388,LaHfF7,6.3089
mp-1039918,LaHfMg30O32,0.11689999999999935
mp-1223035,LaHo3Mn8O20,1.0717999999999996
mp-756166,LaHoO3,4.3855
mp-1222979,LaHoSi2O7,4.9633
mp-27979,LaI3,2.0643
mp-30993,LaIO,3.2887000000000004
mp-1080184,LaIO3,0.7465999999999999
mp-1211578,LaIn2Cl5,2.551
mp-11623,LaInO3,2.7507
mp-22220,LaLuO3,4.4525000000000015
mp-1106374,LaLuS3,2.2496
mp-557758,LaMg(BO2)5,4.7441
mp-510643,LaMg2Cu9,0.023800000000000487
mp-703316,LaMg2H7,2.6059
mp-1180682,LaMg2H7Pd,0.7088999999999999
mp-5134,LaMg2Ni9,0.00480000000000036
mp-697905,LaMg2NiH7,0.9109999999999996
mp-1039913,LaMg30BO32,2.1675000000000004
mp-1223152,LaMgAl11O19,4.181799999999999
mp-1044928,LaMgCr2O6,0.5433000000000003
mp-1044889,LaMgCrCoO6,0.8331
mp-1043896,LaMgCrFeO6,0.7804000000000002
mp-1049205,LaMgCrMoO6,1.4102000000000006
mp-1049277,LaMgCrSnO6,2.502299999999999
mp-1044938,LaMgCrWO6,1.8061
mp-1043932,LaMgFeAgO6,0.07800000000000029
mp-1043977,LaMgFeCoO6,0.7493999999999996
mp-1043854,LaMgFeCuO6,0.0732999999999997
mp-1044001,LaMgFeMoO6,1.2386999999999997
mp-1043980,LaMgFeSbO6,1.9064000000000003
mp-1044121,LaMgFeSnO6,2.1909
mp-1043975,LaMgFeWO6,2.3537
mp-756578,LaMgI5,1.9695000000000005
mp-1044923,LaMgMnCrO6,0.9613000000000004
mp-1043996,LaMgMnFeO6,1.4124
mp-1238931,LaMgS3,0.07750000000000057
mp-1049266,LaMgTaCrO6,2.1235
mp-1043991,LaMgTaFeO6,2.8630000000000004
mp-1044883,LaMgTiCrO6,2.277100000000001
mp-1043786,LaMgTiFeO6,2.0177
mp-1044888,LaMgVCrO6,1.3730000000000002
mp-1043844,LaMgVFeO6,1.0621
mp-25694,LaMn2O5,1.1301000000000003
mp-1211359,LaMn3Cr4O12,1.3265000000000002
mp-1205445,LaMn3V4O12,0.4072999999999993
mp-1222881,LaMn4(BiO4)3,0.20889999999999986
mp-1222927,LaMn8Bi3O20,0.5699000000000005
mp-1040818,LaMnCrO6,0.4925999999999995
mp-1223013,LaMnFe3(BiO4)3,0.7427000000000001
mp-1049231,LaMnZnCrO6,0.8968000000000007
mp-1043865,LaMnZnFeO6,1.3254
mp-579163,LaMo2O5,0.7117999999999993
mp-505584,LaMo5O8,0.9783999999999996
mp-1204388,LaMoClO4,2.7394
mp-1199585,LaMoI4O15,0.01639999999999997
mp-989631,LaMoN3,2.0897
mp-1211854,LaMoO5,2.3364000000000003
mp-567290,LaN,1.1159
mp-1212058,LaN(ClO)4,0.4819
mp-1213500,LaN2Cl5,2.2028
mp-1196867,LaN3,0.4931999999999999
mp-1182768,LaN3O13,1.6852
mp-1019897,LaNO4,1.3265000000000002
mp-1222828,LaNb2AgO7,1.1594000000000002
mp-554475,LaNb2ClO6,2.5637
mp-1201335,LaNb2CuBrO7,0.15839999999999987
mp-1198693,LaNb2CuClO7,0.21350000000000025
mp-757457,LaNb3O9,1.6303
mp-28155,LaNb5O14,2.1536